Name,Formula,State,Formula-Raw,Phase-Flag,Molecular-Weight,hf298,T_low,T_high,dh298_0,a1,a2,a3,a4,a5,a6,a7,b1,b2,eq
hydrogen d dioxide,HDO2,g,H   1.00D   1.00O   2.00    0.00    0.00,0,35.020842,-140241.635,1000,6000,11334.965,1313180.619,-5175.63712,12.16490975,-0.00061367,1.23E-07,-1.08E-11,3.87E-16,13032.0967,-50.8527687,1
hydrogen monofluoride,HF,g,H   1.00F   1.00    0.00    0.00    0.00,0,20.0063432,-273300,1000,6000,8599.103,725708.904,-1484.797741,3.85552747,0.000713899,-2.11E-07,3.05E-11,-1.64E-15,-23554.5666,-3.20385683,1
hydrogen moniodide,HI,g,H   1.00I   1.00    0.00    0.00    0.00,0,127.91241,26359.556,1000,5000,0,0,0,2.9104008,0.001568819,-5.92E-07,1.05E-10,-7.04E-15,2250.8659,7.86447051,1
hydrogen mononitride monocarbide,HNC,g,H   1.00N   1.00C   1.00    0.00    0.00,0,27.02538,194378.121,1000,6000,10000.724,1198765.94,-3918.87532,9.11795312,-0.000341743,3.31E-08,-5.69E-13,-7.79E-17,46587.6704,-34.6852865,1
hydrogen mononitride monocarbide monoxide,HNCO,g,H   1.00N   1.00C   1.00O   1.00    0.00,0,43.02478,-118061.4,1000,6000,10961.254,1257367.696,-5038.23973,12.49617398,-0.000697533,1.12E-07,-9.54E-12,3.35E-16,14636.98265,-53.20579852,1
hydrogen mononitride monoxide,HNO,g,H   1.00N   1.00O   1.00    0.00    0.00,0,31.01408,102032.725,1000,6000,9941.88,-5797632.99,19463.1341,-21.53876091,0.017983212,-4.98E-06,6.40E-10,-3.14E-14,-110470.9471,181.9552443,1
hydrogen mononitrite,HNO2,g,H   1.00N   1.00O   2.00    0.00    0.00,0,47.01348,-78451.922,1000,6000,11597.285,878790.413,-3990.45503,11.87349269,-0.00048819,7.13E-08,-5.38E-12,1.58E-16,12463.43241,-46.0887456,1
hydrogen mononitrate,HNO3,g,H   1.00N   1.00O   3.00    0.00    0.00,0,63.01288,-133912.869,1000,6000,11876.39,-94978.0964,-2733.024468,14.49426995,-0.000782187,1.70E-07,-1.93E-11,8.87E-16,-4882.51778,-59.2839289,1
hydrogen monoxide monochloride,HOCl,g,H   1.00O   1.00CL  1.00    0.00    0.00,0,52.46004,-75740.849,1000,6000,10223.809,853238.909,-2849.44767,7.94982671,-0.000105518,-1.47E-08,4.57E-12,-3.05E-16,7260.86811,-22.5083438,1
hydrogen monoxide monofluoride,HOF,g,H   1.00O   1.00F   1.00    0.00    0.00,0,36.0057432,-96898.221,1000,6000,10088.435,881185.028,-3119.97051,8.22366843,-0.000229783,1.46E-08,1.10E-12,-1.40E-16,6300.26833,-25.9012002,1
hydrogen dioxide,HO2,g,H   1.00O   2.00    0.00    0.00    0.00,0,33.00674,12552,1000,6000,10002.162,-1810669.724,4963.19203,-1.039498992,0.004560149,-1.06E-06,1.14E-10,-4.76E-15,-31944.1874,40.6685092,1
hydrogen monophosphide monoxide,HPO,g,H   1.00P   1.00O   1.00    0.00    0.00,0,47.981101,-56868.759,1000,6000,10065.343,384245.945,-2434.951707,8.58217392,-0.000405845,-1.67E-08,2.25E-11,-1.94E-15,5761.63212,-26.49097544,1
hydrogen sulfite monofluoride,HSO3F,g,H   1.00S   1.00O   3.00F   1.00    0.00,0,100.0705432,-753129.062,1000,5000,0,0,0,10.36419,0.005386116,-2.12E-06,3.82E-10,-2.58E-14,-94398.334,-26.0055034,1
dihydrogen,H2,g,H   2.00    0.00    0.00    0.00    0.00,0,2.01588,0,1000,6000,8468.102,560812.338,-837.149134,2.97536304,0.00125225,-3.74E-07,5.94E-11,-3.61E-15,5339.81585,-2.20276405,1
HBOH,H2BO,g,H   2.00B   1.00O   1.00    0.00    0.00,0,28.82628,-48724.364,1000,6000,10940.536,1534611.049,-5753.66643,12.70893665,-0.000705963,1.03E-07,-7.67E-12,2.21E-16,27793.70419,-56.0886008,1
"HCHO,formaldehy",H2CO,g,H   2.00C   1.00O   1.00    0.00    0.00,0,30.02598,-108580,1000,6000,10019.717,1700799.002,-7620.78666,14.72440991,-0.00164908,3.29E-07,-3.49E-11,1.53E-15,31467.69107,-73.86432128,1
HCOOH,H2CO2,g,H   2.00C   1.00O   2.00    0.00    0.00,0,46.02538,-378570,1000,6000,10927.649,487217.925,-7632.19698,21.3278399,-0.004402525,1.10E-06,-1.36E-10,6.65E-15,-5781.69887,-111.1787766,1
dihydrogen difluoride,H2F2,g,H   2.00F   2.00    0.00    0.00    0.00,0,40.0126864,-569923.778,1000,6000,13869.43,1464995.601,-3335.07492,9.18748704,0.001051127,-3.28E-07,4.46E-11,-2.28E-15,-48254.4209,-26.39128168,1
dihydrogen monoxide,H2O,g,H   2.00O   1.00    0.00    0.00    0.00,0,18.01528,-241826,1000,6000,9904.092,1034972.096,-2412.698562,4.64611078,0.002291998,-6.84E-07,9.43E-11,-4.82E-15,-13842.86509,-7.97814851,1
dihydrogen dioxide,H2O2,g,H   2.00O   2.00    0.00    0.00    0.00,0,34.01468,-135880,1000,6000,11158.835,1489428.027,-5170.82178,11.2820497,-8.04E-05,-1.82E-08,6.95E-12,-4.83E-16,14182.51038,-46.5085566,1
dihydrogen monosulfide,H2S,g,H   2.00S   1.00    0.00    0.00    0.00,0,34.08188,-20600,1000,6000,9957.12,1432316.933,-5290.96566,10.16831761,-0.000972131,2.12E-07,-2.18E-11,9.37E-16,29131.39316,-43.5420197,1
dihydrogen monosulfate,H2SO4,g,H   2.00S   1.00O   4.00    0.00    0.00,0,98.07948,-732731.721,1000,6000,16508.589,1437877.914,-6614.90253,21.57662058,-0.000480626,3.01E-08,2.33E-12,-2.95E-16,-52590.9295,-102.3603571,1
H2BOH,H3BO,g,H   3.00B   1.00O   1.00    0.00    0.00,0,29.83422,-289633.898,1000,6000,10622.306,2294795.193,-9382.92356,17.98228329,-0.001506116,2.64E-07,-2.48E-11,9.74E-16,20397.38953,-94.4820121,1
HB(OH)2,H3BO2,g,H   3.00B   1.00O   2.00    0.00    0.00,0,45.83362,-644438.724,1000,6000,12157.532,2122674.609,-8615.94894,19.6617952,-0.000814841,8.96E-08,-3.34E-12,-6.92E-17,-27887.90377,-99.8355961,1
trihydrogen monoborate,H3BO3,g,H   3.00B   1.00O   3.00    0.00    0.00,0,61.83302,-1004360.442,1000,6000,13559.958,2297369.132,-8933.57179,21.93496552,-0.000309478,-5.06E-08,1.48E-11,-9.76E-16,-69702.9847,-112.2292829,1
trihydrogen triboride trioxide,H3B3O3,g,H   3.00B   3.00O   3.00    0.00    0.00,0,83.45502,-1203760.987,1000,6000,15603.321,1286220.713,-10932.58784,32.1351867,-0.002595402,5.35E-07,-5.83E-11,2.60E-15,-87528.5689,-177.0847815,1
trihydrogen triboride hexoxide,H3B3O6,g,H   3.00B   3.00O   6.00    0.00    0.00,0,131.45322,-2263687.611,1000,6000,23696.853,1952433.352,-11549.32896,38.9267611,-0.001113852,1.28E-07,-5.73E-12,-2.21E-17,-212092.7136,-207.5566801,1
trihydrogen trifluoride,H3F3,g,H   3.00F   3.00    0.00    0.00    0.00,0,60.0190296,-883676.79,1000,6000,15263.022,2515790.373,-8789.42332,20.23933445,-0.001131705,1.69E-07,-1.31E-11,3.98E-16,-54717.1365,-99.0778764,1
(HCOOH)2,H4C2O4,g,H   4.00C   2.00O   4.00    0.00    0.00,0,92.05076,-820942.64,1000,6000,19631.909,3308073.03,-16336.3189,37.5130536,-0.003147858,6.01E-07,-6.14E-11,2.60E-15,-6268.1903,-210.7446126,1
tetrahydrogen tetrafluoride,H4F4,g,H   4.00F   4.00    0.00    0.00    0.00,0,80.0253728,-1186932.336,1000,6000,21654.08,3354037.99,-11719.2204,27.65243565,-0.001508935,2.26E-07,-1.74E-11,5.30E-16,-74202.1316,-138.8603332,1
pentahydrogen pentafluoride,H5F5,g,H   5.00F   5.00    0.00    0.00    0.00,0,100.031716,-1490187.882,1000,6000,28045.138,4192290.73,-14649.03043,35.0655492,-0.00188617,2.82E-07,-2.18E-11,6.63E-16,-93687.042,-178.8592044,1
hexahydrogen hexafluoride,H6F6,g,H   6.00F   6.00    0.00    0.00    0.00,0,120.0380592,-1805545.131,1000,6000,34334.493,5024520.32,-17428.17868,42.148705,-0.002084565,2.93E-07,-2.05E-11,5.21E-16,-115449.7653,-216.3947001,1
heptahydrogen heptafluoride,H7F7,g,H   7.00F   7.00    0.00    0.00    0.00,0,140.0444024,-2099698.974,1000,6000,40827.254,5868789.83,-20508.63473,49.8917611,-0.002640635,3.95E-07,-3.05E-11,9.28E-16,-133017.7809,-259.2385142,1
helium,He,g,HE  1.00    0.00    0.00    0.00    0.00,0,4.002602,0,1000,6000,6197.428,0,0,2.5,0,0,0,0,-745.375,0.928723974,1
mercury,Hg,g,HG  1.00    0.00    0.00    0.00    0.00,0,200.59,61380,1000,6000,6197.428,51465.7351,-168.1269855,2.718343098,-0.000144503,5.16E-08,-9.47E-12,7.03E-16,7688.68493,5.27123609,1
mercury bromide,HgBr2,g,HG  1.00BR  2.00    0.00    0.00    0.00,0,360.398,-85451.725,1000,5000,0,0,0,7.422699,7.87E-05,-2.99E-08,4.85E-12,-2.79E-16,-12522.02,-3.86733971,1
iodine,I,g,I   1.00    0.00    0.00    0.00    0.00,0,126.90447,106760,1000,6000,6197.428,-778586.057,2303.279568,0.002886686,0.001180878,-2.26E-07,1.96E-11,-6.24E-16,-2616.792742,25.58922997,1
iodine pentafluoride,IF5,g,I   1.00F   5.00    0.00    0.00    0.00,0,221.896486,-841000,1000,6000,20044.142,-362191.846,-163.536237,16.1223154,-4.89E-05,1.08E-08,-1.24E-12,5.72E-17,-106166.725,-53.9847613,1
iodine heptafluoride,IF7,g,I   1.00F   7.00    0.00    0.00    0.00,0,259.8932924,-961500,1000,6000,24123.333,-561476.595,-264.540637,22.1987171,-7.98E-05,1.77E-08,-2.03E-12,9.42E-17,-122525.109,-87.7395016,1
diiodine,I2,g,I   2.00    0.00    0.00    0.00    0.00,0,253.80894,62420,1000,6000,10116.122,-5632594.16,17939.6156,-17.23055169,0.012442141,-3.33E-06,4.13E-10,-1.96E-14,-106850.5292,160.0531883,1
indium,In,g,IN  1.00    0.00    0.00    0.00    0.00,0,114.818,240700,1000,6000,6198.649,-1683608.899,2210.473186,3.47221937,-0.001082267,3.48E-07,-5.16E-11,3.18E-15,10959.65206,2.557189088,1
indium bromide,InBr,g,IN  1.00BR  1.00    0.00    0.00    0.00,0,194.722,-54115.879,1000,6000,10084.121,794837.442,-2318.183711,7.03288958,-0.001245921,3.28E-07,-3.00E-11,5.85E-16,6957.62729,-12.7350266,1
indium bromide,InBr2,g,IN  1.00BR  2.00    0.00    0.00    0.00,0,274.626,-149729.059,1000,6000,14424.341,-321716.203,479.26821,7.10264948,-0.000551402,3.16E-07,-5.51E-11,3.17E-15,-23709.23659,0.119326335,1
indium bromide,InBr3,g,IN  1.00BR  3.00    0.00    0.00    0.00,0,354.53,-256587.267,1000,6000,19912.733,-35057.831,-4.85872132,10.00406131,-1.77E-06,4.16E-10,-5.02E-14,2.42E-18,-33931.7924,-12.29069868,1
indium chloride,InCl,g,IN  1.00CL  1.00    0.00    0.00    0.00,0,150.2707,-72147.883,1000,6000,9752.117,-274575.1636,894.098691,3.26811839,0.000918028,-3.08E-07,5.75E-11,-3.65E-15,-15616.0343,12.66880075,1
indium chloride,InCl2,g,IN  1.00CL  2.00    0.00    0.00    0.00,0,185.7234,-201483.416,1000,6000,13956.384,-332871.984,475.769161,7.10544369,-0.000552579,3.16E-07,-5.51E-11,3.17E-15,-29950.95917,-2.294560357,1
indium chloride,InCl3,g,IN  1.00CL  3.00    0.00    0.00    0.00,0,221.1761,-369693.227,1000,6000,18306.773,-71140.4363,-16.28425068,10.01309622,-5.54E-06,1.28E-09,-1.52E-13,7.23E-18,-47589.7417,-16.69761621,1
indium fluoride,InF,g,IN  1.00F   1.00    0.00    0.00    0.00,0,133.8164032,-193419.989,1000,6000,9217.111,-468900.12,1321.019051,2.881329353,0.001041591,-3.09E-07,4.93E-11,-2.70E-15,-33083.6981,13.96688303,1
indium fluoride,InF2,g,IN  1.00F   2.00    0.00    0.00    0.00,0,152.8148064,-457186.824,1000,6000,12588.776,431896.034,-1688.47242,8.92586301,-0.001049189,2.72E-07,-2.88E-11,1.07E-15,-46736.9194,-19.32464363,1
indium fluoride,InF3,g,IN  1.00F   3.00    0.00    0.00    0.00,0,171.8132096,-863079.566,1000,6000,16320.434,-165685.5506,-79.6588929,10.05913347,-2.35E-05,5.16E-09,-5.89E-13,2.72E-17,-106868.2627,-21.32968218,1
indium hydride,InH,g,IN  1.00H   1.00    0.00    0.00    0.00,0,115.82594,215016.904,1000,6000,8684.104,779740.666,-3646.88208,9.54296735,-0.003481282,1.30E-06,-2.18E-10,1.27E-14,46432.9546,-36.5932923,1
indium iodide,InI,g,IN  1.00I   1.00    0.00    0.00    0.00,0,241.72247,26417.124,1000,6000,10271.124,1529221.772,-4690.37368,10.04593462,-0.003140434,9.46E-07,-1.25E-10,5.95E-15,31524.78143,-32.9769749,1
indium iodide,InI2,g,IN  1.00I   2.00    0.00    0.00    0.00,0,368.62694,-39460.643,1000,6000,14912.757,-313067.1665,481.38107,7.10091418,-0.000550656,3.16E-07,-5.51E-11,3.17E-15,-10430.1275,2.141662307,1
indium iodide,InI3,g,IN  1.00I   3.00    0.00    0.00    0.00,0,495.53141,-105435.914,1000,6000,20852.086,-21967.42567,-2.151167521,10.001822,-8.00E-07,1.90E-10,-2.30E-14,1.11E-18,-15724.06335,-9.17088869,1
indium oxide,InO,g,IN  1.00O   1.00    0.00    0.00    0.00,0,130.8174,145993.109,1000,6000,9042.109,-805213.095,1693.064203,4.76086358,-0.000734072,3.23E-07,-4.58E-11,1.95E-15,4005.51981,3.50074246,1
indium hydroxide,InOH,g,IN  1.00O   1.00H   1.00    0.00    0.00,0,131.82534,-124447.344,1000,6000,10736.839,852512.893,-2350.317172,7.98451514,9.92E-05,-6.21E-08,1.02E-11,-5.68E-16,-1536.21361,-20.43107643,1
indium bromide,In2Br2,g,IN  2.00BR  2.00    0.00    0.00    0.00,0,389.444,-196305.215,1000,6000,21434.943,-12907.81804,-0.607540124,10.00052163,-2.31E-07,5.52E-11,-6.71E-15,3.25E-19,-26631.36878,-9.14994947,1
indium bromide,In2Br4,g,IN  2.00BR  4.00    0.00    0.00    0.00,0,549.252,-436508.683,1000,6000,31798.117,-44534.6371,-4.91152398,16.00413764,-1.81E-06,4.28E-10,-5.17E-14,2.50E-18,-57391.7541,-31.7490639,1
indium bromide,In2Br6,g,IN  2.00BR  6.00    0.00    0.00    0.00,0,709.06,-628683.43,1000,6000,43096.728,-69450.3948,-8.40236817,22.00703884,-3.07E-06,7.24E-10,-8.72E-14,4.20E-18,-82357.5985,-53.221928,1
indium chloride,In2Cl2,g,IN  2.00CL  2.00    0.00    0.00    0.00,0,300.5414,-232177.375,1000,6000,20223.895,-26166.06332,-2.401955489,10.00203984,-8.98E-07,2.13E-10,-2.58E-14,1.25E-18,-30980.16735,-12.34946804,1
indium chloride,In2Cl4,g,IN  2.00CL  4.00    0.00    0.00    0.00,0,371.4468,-579125.856,1000,6000,29456.525,-85037.7179,-15.52464614,16.01269668,-5.44E-06,1.27E-09,-1.51E-13,7.25E-18,-74619.2174,-36.911511,1
indium chloride,In2Cl6,g,IN  2.00CL  6.00    0.00    0.00    0.00,0,442.3522,-882340.029,1000,6000,38423.462,-149940.0484,-29.88680816,22.02425362,-1.03E-05,2.40E-09,-2.86E-13,1.36E-17,-113011.0233,-62.9398629,1
indium fluoride,In2F2,g,IN  2.00F   2.00    0.00    0.00    0.00,0,267.6328064,-532234.3,1000,6000,18039.9,-64097.1544,-11.63740672,10.00956511,-4.11E-06,9.61E-10,-1.15E-13,5.51E-18,-67142.7785,-16.61718474,1
indium fluoride,In2F4,g,IN  2.00F   4.00    0.00    0.00    0.00,0,305.6296128,-1284788.126,1000,6000,24763.074,-220597.7486,-78.2208377,16.05923872,-2.39E-05,5.33E-09,-6.14E-13,2.86E-17,-159571.6347,-44.6957458,1
indium fluoride,In2F6,g,IN  2.00F   6.00    0.00    0.00    0.00,0,343.6264192,-1960000,1000,6000,33567.102,-317096.638,-116.7440973,22.08847456,-3.58E-05,7.97E-09,-9.19E-13,4.28E-17,-242666.1118,-71.5532856,1
indium iodide,In2I2,g,IN  2.00I   2.00    0.00    0.00    0.00,0,483.44494,-27813.524,1000,6000,22058.476,-8148.1573,-0.244454444,10.00021086,-9.38E-08,2.24E-11,-2.73E-15,1.33E-19,-6352.6515,-6.94772542,1
indium iodide,In2I4,g,IN  2.00I   4.00    0.00    0.00    0.00,0,737.25388,-199143.181,1000,6000,33468.979,-25056.99251,-1.642155234,16.00140149,-6.19E-07,1.47E-10,-1.79E-14,8.65E-19,-28796.55333,-27.57790375,1
indium iodide,In2I6,g,IN  2.00I   6.00    0.00    0.00    0.00,0,991.06282,-319720.04,1000,6000,45088.12,-43119.0585,-3.39035059,22.00288128,-1.27E-06,3.01E-10,-3.65E-14,1.77E-18,-45138.2027,-48.0686837,1
indium oxide,In2O,g,IN  2.00O   1.00    0.00    0.00    0.00,0,245.6354,-34763.707,1000,6000,12796.504,-92327.8636,-52.0112728,7.03872362,-1.54E-05,3.40E-09,-3.89E-13,1.80E-17,-6270.9268,-4.42182041,1
potassium,K,g,K   1.00    0.00    0.00    0.00    0.00,0,39.0983,89000,1000,6000,6197.428,-3566422.36,10852.89825,-10.54134898,0.008009801,-2.70E-06,4.72E-10,-2.98E-14,-58753.3701,97.3855124,1
potassium borate,KBO2,g,K   1.00B   1.00O   2.00    0.00    0.00,0,81.9081,-674054.737,1000,5000,0,0,0,7.5502508,0.002566182,-1.07E-06,1.99E-10,-1.37E-14,-83653.834,-8.4927,1
potassium monocarbide mononitride,KCN,g,K   1.00C   1.00N   1.00    0.00    0.00,0,65.11574,79499.339,1000,5000,0,0,0,5.800712,0.001720079,-7.08E-07,1.32E-10,-9.19E-15,7727.2628,-3.158848012,1
potassium chloride,KCl,g,K   1.00CL  1.00    0.00    0.00    0.00,0,74.551,-214685.057,1000,5000,0,0,0,4.4636733,0.000122292,-9.17E-09,9.26E-13,-1.04E-17,-27173.133,3.24808995,1
potassium fluoride,KF,g,K   1.00F   1.00    0.00    0.00    0.00,0,58.0967032,-326776.265,1000,5000,0,0,0,4.40407,0.000178337,-3.61E-08,5.88E-12,-3.47E-16,-40655.889,2.03109585,1
potassium hydride,KH,g,K   1.00H   1.00    0.00    0.00    0.00,0,40.10624,123012.034,1000,5000,0,0,0,3.9603386,0.000721903,-2.69E-07,5.26E-11,-3.79E-15,13501.837,0.855345083,1
potassium oxide,KO,g,K   1.00O   1.00    0.00    0.00    0.00,0,55.0977,71131.606,1000,5000,0,0,0,4.4244778,0.000199362,-3.71E-08,7.13E-12,-5.04E-16,7205.2331,3.30766849,1
potassium hydroxide,KOH,g,K   1.00O   1.00H   1.00    0.00    0.00,0,56.10564,-232000,1000,6000,11674.65,891727.195,-2334.179072,7.97257871,0.000103886,-6.32E-08,1.03E-11,-5.74E-16,-14436.96469,-20.76401416,1
dipotassium,K2,g,K   2.00    0.00    0.00    0.00    0.00,0,78.1966,123672.129,1000,6000,10738.129,-4205896.42,11705.7091,-5.49238023,0.002862953,-5.70E-07,5.95E-11,-2.54E-15,-62729.1963,80.5517432,1
potassium dicarbide dinitride,K2C2N2,g,K   2.00C   2.00N   2.00    0.00    0.00,0,130.23148,-8365.237,1000,5000,0,0,0,12.625754,0.0034124,-1.40E-06,2.62E-10,-1.82E-14,-4975.3614,-28.15390492,1
potassium chloride,K2Cl2,g,K   2.00CL  2.00    0.00    0.00    0.00,0,149.102,-617657.012,1000,5000,0,0,0,9.9041069,0.000111797,-5.04E-08,9.99E-12,-7.27E-16,-77272.33,-14.090282,1
potassium fluoride,K2F2,g,K   2.00F   2.00    0.00    0.00    0.00,0,116.1934064,-862757.408,1000,5000,0,0,0,9.8148096,0.000204531,-8.71E-08,1.63E-11,-1.13E-15,-106759.87,-17.641803,1
potassium dioxide dihydride,K2O2H2,g,K   2.00O   2.00H   2.00    0.00    0.00,0,112.21128,-641000,1000,6000,22384.933,1773523.196,-4665.29247,16.94308128,0.00020853,-1.26E-07,2.06E-11,-1.15E-15,-50512.6331,-63.3477392,1
potassium sulfate,K2SO4,g,K   2.00S   1.00O   4.00    0.00    0.00,0,174.2602,-1094144.144,1000,5000,0,0,0,15.374108,0.004105614,-1.81E-06,3.55E-10,-2.56E-14,-136953.29,-46.1438154,1
krypton,Kr,g,KR  1.00    0.00    0.00    0.00    0.00,0,83.8,0,1000,6000,6197.428,264.3639057,-0.791005082,2.500920585,-5.33E-07,1.62E-10,-2.47E-14,1.48E-18,-740.348894,5.48439815,1
lithium,Li,g,LI  1.00    0.00    0.00    0.00    0.00,0,6.941,159300,1000,6000,6197.428,1125610.652,-3463.53673,6.56661192,-0.002260983,5.92E-07,-6.28E-11,2.88E-15,40346.374,-26.55918195,1
lithium aluminum tetrafluoride,LiAlF4,g,LI  1.00AL  1.00F   4.00    0.00    0.00,0,109.9161508,-1853531.697,1000,5000,0,0,0,14.037742,0.002248264,-1.00E-06,1.97E-10,-1.42E-14,-227627.57,-42.36014801,1
lithium borate,LiBO2,g,LI  1.00B   1.00O   2.00    0.00    0.00,0,49.7508,-646856.749,1000,5000,0,0,0,7.4266096,0.002704376,-1.13E-06,2.11E-10,-1.46E-14,-80370.285,-10.6007918,1
lithium chloride,LiCl,g,LI  1.00CL  1.00    0.00    0.00    0.00,0,42.3937,-195712.165,1000,5000,0,0,0,4.2712143,0.000314003,-1.01E-07,1.85E-11,-1.24E-15,-24884.442,1.04172158,1
lithium fluoride,LiF,g,LI  1.00F   1.00    0.00    0.00    0.00,0,25.9394032,-340794.847,1000,5000,0,0,0,4.0430248,0.000570411,-2.15E-07,4.06E-11,-2.84E-15,-42299.318,0.697695467,1
lithium monofluoride monoxide,LiFO,g,LI  1.00F   1.00O   1.00    0.00    0.00,0,41.9388032,-92041.76,1000,5000,0,0,0,5.9926109,0.00111392,-4.79E-07,9.11E-11,-6.38E-15,-13100.989,-5.33660329,1
lithium hydride,LiH,g,LI  1.00H   1.00    0.00    0.00    0.00,0,7.94894,140625.945,1000,5000,0,0,0,3.5884297,0.001072769,-4.02E-07,7.38E-11,-4.93E-15,15717.625,-0.375038965,1
lithium nitride,LiN,g,LI  1.00N   1.00    0.00    0.00    0.00,0,20.94774,334730.691,1000,5000,0,0,0,4.2258077,0.000396672,-1.25E-07,2.32E-11,-1.59E-15,38916.952,0.700851481,1
lithium oxide,LiO,g,LI  1.00O   1.00    0.00    0.00    0.00,0,22.9404,84098.28,1000,5000,0,0,0,4.1876205,0.000411866,-1.45E-07,2.73E-11,-1.89E-15,8779.5259,1.23142599,1
lithium hydroxide,LiOH,g,LI  1.00O   1.00H   1.00    0.00    0.00,0,23.94834,-229000,1000,6000,11336.961,850066.921,-2430.51974,8.05529381,6.90E-05,-5.53E-08,9.37E-12,-5.31E-16,-13659.08112,-24.5758293,1
lithium monoxide mononitride,LiON,g,LI  1.00O   1.00N   1.00    0.00    0.00,0,36.94714,179918.898,1000,5000,0,0,0,5.8123496,0.001287063,-5.47E-07,1.03E-10,-7.19E-15,19692.302,-4.34470559,1
dilithium,Li2,g,LI  2.00    0.00    0.00    0.00    0.00,0,13.882,215900,1000,6000,9675.116,37676452.5,-118574.713,148.216774,-0.083785319,2.42E-05,-3.28E-09,1.65E-13,772307.166,-1021.69726,1
lithium chloride,Li2Cl2,g,LI  2.00CL  2.00    0.00    0.00    0.00,0,84.7874,-598521.423,1000,5000,0,0,0,9.5245614,0.000524588,-2.23E-07,4.20E-11,-2.90E-15,-74990.263,-20.0316716,1
lithium fluoride,Li2F2,g,LI  2.00F   2.00    0.00    0.00    0.00,0,51.8788064,-942791.003,1000,5000,0,0,0,8.9566636,0.001171927,-5.10E-07,9.79E-11,-6.92E-15,-116372.28,-20.8863312,1