Name,Formula,State,Formula-Raw,Phase-Flag,Molecular-Weight,hf298,T_low,T_high,dh298_0,a1,a2,a3,a4,a5,a6,a7,b1,b2,eq
vinylidene,C2H2,g,C   2.00H   2.00    0.00    0.00    0.00,0,26.03728,414788.168,1000,6000,10874.168,1940844.95,-6892.74454,13.3958622,-0.00093692,1.47E-07,-1.22E-11,4.12E-16,91071.266,-63.37532444,1
acetylene,C2H2,g,C   2.00H   2.00    0.00    0.00    0.00,0,26.03728,228200,1000,6000,10005.839,1713792.12,-5928.97095,12.3611564,0.000131471,-1.36E-07,2.71E-11,-1.30E-15,62664.8973,-58.18872934,1
dicarbon dihydride dichloride,C2H2Cl2,g,C   2.00H   2.00CL  2.00    0.00    0.00,0,96.94268,3410,1000,6000,14882.477,1561078.805,-7357.98202,20.1185754,-0.001310921,2.41E-07,-2.38E-11,9.78E-16,41221.2689,-95.50169906,1
dicarbon dihydride monofluoride monochloride,C2H2FCl,g,C   2.00H   2.00F   1.00CL  1.00    0.00,0,80.4883832,-165082,1000,6000,13469.313,1527659.307,-6689.63069,19.50545828,-0.001040882,1.78E-07,-1.63E-11,6.21E-16,17052.13316,-91.94021576,1
dicarbon dihydride difluoride,C2H2F2,g,C   2.00H   2.00F   2.00    0.00    0.00,0,64.0340864,-336400,1000,6000,12479.683,-822802.103,-2915.493308,18.30140501,-0.00103951,2.55E-07,-3.16E-11,1.55E-15,-31101.74211,-84.00665971,1
"CH2CO,ketene",C2H2O,g,C   2.00H   2.00O   1.00    0.00    0.00,0,42.03668,-47700,1000,6000,11797.743,2015808.05,-8201.89832,17.5909614,-0.001460627,2.69E-07,-2.65E-11,1.09E-15,42016.365,-88.36982852,1
vinyl radical,C2H3,g,C   2.00H   3.00    0.00    0.00    0.00,0,27.04522,299740.151,1000,6000,10575.049,2561698.63,-10057.9466,18.5187445,-0.001719194,3.09E-07,-2.99E-11,1.20E-15,95758.7448,-98.18485136,1
dicarbon trihydride monochloride,C2H3Cl,g,C   2.00H   3.00CL  1.00    0.00    0.00,0,62.49792,23000,1000,6000,11819.647,2456166.38,-10474.49391,21.78733041,-0.001816875,3.30E-07,-3.21E-11,1.30E-15,63582.3697,-114.988846,1
dicarbon trihydride monofluoride,C2H3F,g,C   2.00H   3.00F   1.00    0.00    0.00,0,46.0436232,-140100,1000,6000,11335.928,2478832.992,-10759.33774,21.94799679,-0.001869137,3.40E-07,-3.32E-11,1.35E-15,45634.6366,-118.0412489,1
CH3CN,C2H3N,g,C   2.00H   3.00N   1.00    0.00    0.00,0,41.05196,64430,1000,6000,12093.105,2931022.01,-12365.4003,23.2667331,-0.00242135,4.65E-07,-4.77E-11,2.03E-15,80520.643,-129.4026158,1
"CH3CO,acetyl",C2H3O,g,C   2.00H   3.00O   1.00    0.00    0.00,0,43.04462,-10000,1000,6000,13036.467,2485510.168,-11207.47766,22.77560881,-0.002314445,4.54E-07,-4.74E-11,2.05E-15,63803.0474,-121.5376745,1
dicarbon tetrahydride,C2H4,g,C   2.00H   4.00    0.00    0.00    0.00,0,28.05316,52500,1000,6000,10518.689,3408725.12,-13748.3642,23.6588483,-0.002423729,4.43E-07,-4.35E-11,1.78E-15,88203.5634,-137.1268982,1
"CH3CHO,ethanal",C2H4O,g,C   2.00H   4.00O   1.00    0.00    0.00,0,44.05256,-166190,1000,6000,12896.716,3321164.64,-14497.1789,27.0842017,-0.002879318,5.56E-07,-5.73E-11,2.44E-15,65077.4116,-153.6235338,1
acetic acid,C2H4O2,g,C   2.00H   4.00O   2.00    0.00    0.00,0,60.05196,-432249.04,1000,6000,13597.325,2103541.15,-14678.3243,33.8281592,-0.005694937,1.34E-06,-1.61E-10,7.65E-15,29242.9134,-193.528824,1
dicarbon pentahydride,C2H5,g,C   2.00H   5.00    0.00    0.00    0.00,0,29.0611,118658.24,1000,6000,12185.244,4169208.95,-16629.7957,27.954403,-0.003051711,5.69E-07,-5.68E-11,2.36E-15,113700.837,-163.935689,1
bromoethane,C2H5Br,g,C   2.00H   5.00BR  1.00    0.00    0.00,0,108.9651,-63600,1000,6000,13569,2378652.344,-12670.34389,27.77559362,-0.002010902,4.44E-07,-5.35E-11,2.64E-15,64140.669,-152.8277775,1
dicarbon hexahydride,C2H6,g,C   2.00H   6.00    0.00    0.00    0.00,0,30.06904,-83851.544,1000,6000,11891.594,5025809.41,-20330.3046,33.2256212,-0.003836754,7.24E-07,-7.32E-11,3.07E-15,111596.908,-203.9417458,1
azomethane,C2H6N2,g,C   2.00H   6.00N   2.00    0.00    0.00,0,58.08252,148699.36,1000,6000,16524.999,4993354.46,-21609.9846,39.6445593,-0.0041965,8.02E-07,-8.21E-11,3.48E-15,144996.377,-237.211386,1
ethanol,C2H6O,g,C   2.00H   6.00O   1.00    0.00    0.00,0,46.06844,-234950,1000,6000,14541.926,4694781.59,-19297.89472,34.4757599,-0.00323613,5.78E-07,-5.56E-11,2.23E-15,86015.652,-203.4795998,1
dimethyl ether,C2H6O,g,C   2.00H   6.00O   1.00    0.00    0.00,0,46.06844,-184110,1000,6000,14354.432,4933577.31,-20830.9438,36.2905242,-0.004108366,7.90E-07,-8.13E-11,3.46E-15,101330.118,-218.544815,1
CCN,C2N,g,C   2.00N   1.00    0.00    0.00    0.00,0,38.02814,804803.412,1000,6000,11245.464,91176.8006,-1382.90338,8.37261949,-0.000268769,3.52E-08,-5.69E-13,-8.40E-17,102581.306,-22.78441154,1
CNC,C2N,g,C   2.00N   1.00    0.00    0.00    0.00,0,38.02814,684917.118,1000,6000,11359.17,-90327.5316,-830.952939,8.11433792,-0.000244552,5.39E-08,-6.18E-12,2.86E-16,84516.612,-21.02380564,1
dicarbon dinitride,C2N2,g,C   2.00N   2.00    0.00    0.00    0.00,0,52.03488,309100,1000,6000,12715,795063.152,-4001.90081,13.14975564,-0.000877408,2.07E-07,-2.21E-11,1.00E-15,58665.4402,-54.7669613,1
dicarbon monoxide,C2O,g,C   2.00O   1.00    0.00    0.00    0.00,0,40.0208,291039.367,1000,6000,10486.419,325488.782,-2339.53572,9.7415954,-0.001245633,3.76E-07,-5.08E-11,2.54E-15,46600.4522,-33.00689278,1
tricarbon,C3,g,C   3.00    0.00    0.00    0.00    0.00,0,36.0321,839948.5,1000,6000,12109,4508043.98,-14610.16,22.8194701,-0.008544237,2.15E-06,-2.10E-10,6.35E-15,191196.492,-127.185504,1
allene,C3H4,g,C   3.00H   4.00    0.00    0.00    0.00,0,40.06386,190920,1000,6000,12604.569,3479262.9,-14303.8696,27.0250754,-0.002557269,4.71E-07,-4.65E-11,1.91E-15,107229.594,-154.8822884,1
propyne,C3H4,g,C   3.00H   4.00    0.00    0.00    0.00,0,40.06386,184510,1000,6000,13030.516,3710430.05,-14891.4286,27.3239475,-0.002645253,4.86E-07,-4.79E-11,1.96E-15,110442.765,-156.7991084,1
allyl radical,C3H5,g,C   3.00H   5.00    0.00    0.00    0.00,0,41.0718,169000,1000,6000,14066.725,3978759.95,-16874.2637,31.4245678,-0.003306814,6.34E-07,-6.51E-11,2.76E-15,119643.36,-181.8181298,1
"C3H6,propylene",C3H6,g,C   3.00H   6.00    0.00    0.00    0.00,0,42.07974,20000,1000,6000,13550.558,5017620.82,-20860.8484,36.4415793,-0.003881203,7.28E-07,-7.32E-11,3.05E-15,126124.58,-219.5717162,1
propylene oxide,C3H6O,g,C   3.00H   6.00O   1.00    0.00    0.00,0,58.07914,-93720,1000,6000,14405.391,4789694.05,-21068.8699,39.5463875,-0.003910885,7.33E-07,-7.36E-11,3.06E-15,112033.866,-237.1998654,1
tricarbon octahydride,C3H8,g,C   3.00H   8.00    0.00    0.00    0.00,0,44.09562,-104680,1000,6000,14742.059,6421429.17,-26600.1757,45.3451297,-0.005021256,9.47E-07,-9.58E-11,4.01E-15,145572.981,-281.8493672,1
1-propanol,C3H8O,g,C   3.00H   8.00O   1.00    0.00    0.00,0,60.09502,-255200,1000,6000,17462,5460837.77,-23961.1715,44.5981629,-0.003384567,5.40E-07,-4.65E-11,1.64E-15,109718.82,-267.396908,1
isopropanol,C3H8O,g,C   3.00H   8.00O   1.00    0.00    0.00,0,60.09502,-272700,1000,6000,17264.183,6000115.5,-25056.2372,46.2192822,-0.004271835,7.69E-07,-7.45E-11,3.00E-15,114835.004,-279.600463,1
carbon suboxide,C3O2,g,C   3.00O   2.00    0.00    0.00    0.00,0,68.0309,-93640,1000,6000,15084.982,696713.757,-4624.31524,16.6386245,-0.001175265,2.48E-07,-2.74E-11,1.24E-15,12522.8566,-72.75657328,1
tetracarbon,C4,g,C   4.00    0.00    0.00    0.00    0.00,0,48.0428,1033903.742,1000,6000,13117.742,920096.292,-1530.4025,6.05018454,0.005252672,-1.78E-06,2.59E-10,-1.39E-14,133439.529,-7.261998182,1
tetracarbon dihydride,C4H2,g,C   4.00H   2.00    0.00    0.00    0.00,0,50.05868,450000,1000,6000,14393.86,2328169.46,-8925.163,21.1432554,-0.001368874,2.33E-07,-2.12E-11,8.05E-16,105778.685,-108.831282,1
"1,3-butadiene",C4H6,g,C   4.00H   6.00    0.00    0.00    0.00,0,54.09044,110000,1000,6000,15130,-23619034.7,56513.241,-32.75739,0.022930709,-2.30E-06,4.29E-11,4.24E-15,-367135.91,301.3437134,1
isobutene,C4H8,g,C   4.00H   8.00    0.00    0.00    0.00,0,56.10632,-17100,1000,6000,17010,14752523.1,-52349.0832,77.4700251,-0.02121746,5.53E-06,-7.17E-10,3.63E-14,318424.106,-505.9505142,1
(CH3COOH)2,C4H8O4,g,C   4.00H   8.00O   4.00    0.00    0.00,0,120.10392,-929015.36,1000,6000,28053.457,6571343.94,-30368.7786,62.5039099,-0.005732735,1.08E-06,-1.10E-10,4.61E-15,63474.7002,-373.456489,1
isobutane,C4H10,g,C   4.00H  10.00    0.00    0.00    0.00,0,58.1222,-134990,1000,6000,17936.501,7527789.56,-32024.5737,57.001012,-0.006059715,1.14E-06,-1.16E-10,4.85E-15,172846.2,-357.61337,1
dicyanoacetylene,C4N2,g,C   4.00N   2.00    0.00    0.00    0.00,0,76.05628,533460,1000,6000,17734.459,1026263.52,-5887.56188,20.4561028,-0.001470016,3.08E-07,-3.40E-11,1.53E-15,95047.2981,-95.41320894,1
pentacarbon,C5,g,C   5.00    0.00    0.00    0.00    0.00,0,60.0535,1050924.331,1000,6000,16191.831,217246.948,-2958.65778,15.6109954,-0.000820142,1.78E-07,-2.01E-11,9.22E-16,139521.726,-64.33212764,1
"C5H11,pentyl",C5H11,g,C   5.00H  11.00    0.00    0.00    0.00,0,71.14084,45810,1000,6000,24422,12452727.2,-49272.3591,81.6579789,-0.016814097,4.20E-06,-5.22E-10,2.55E-14,300998.682,-520.3809782,1
neopentane,C5H12,g,C   5.00H  12.00    0.00    0.00    0.00,0,72.14878,-167920,1000,6000,23179,16847291.3,-59794.8915,86.8550685,-0.009622178,1.65E-06,-1.67E-10,7.37E-15,345853.522,-576.0508184,1
hexacarbon dihydride,C6H2,g,C   6.00H   2.00    0.00    0.00    0.00,0,74.08008,670000,1000,6000,19607.713,2592801.45,-10833.5163,28.47452,-0.001876708,3.41E-07,-3.34E-11,1.36E-15,141851.033,-149.4848078,1
"C6H5,phenyl",C6H5,g,C   6.00H   5.00    0.00    0.00    0.00,0,77.1039,337200,1000,6000,14004.788,3767622.46,-19531.2583,42.2742444,-0.003698465,7.00E-07,-7.11E-11,2.99E-15,151244.131,-251.510328,1
"C6D5,phenyl",C6D5,g,C   6.00D   5.00    0.00    0.00    0.00,0,82.13471,306947.83,1000,5000,0,0,0,14.729492,0.015210535,-5.52E-06,8.80E-10,-5.10E-14,30282.629,-55.75502974,1
"C6H5O,phenoxy",C6H5O,g,C   6.00H   5.00O   1.00    0.00    0.00,0,93.1033,47697.6,1000,6000,16208.093,3678627.4,-19729.7851,45.4118333,-0.003751065,7.11E-07,-7.23E-11,3.05E-15,116359.146,-268.105792,1
hexacarbon hexahydride,C6H6,g,C   6.00H   6.00    0.00    0.00    0.00,0,78.11184,82880,1000,6000,14194.791,4549770.27,-22615.3394,46.922072,-0.004196808,7.87E-07,-7.92E-11,3.30E-15,139238.84,-286.7689812,1
carbon d,C6D6,g,C   6.00D   6.00    0.00    0.00    0.00,0,84.148812,58177.984,1000,5000,0,0,0,15.619864,0.017123934,-6.20E-06,9.85E-10,-5.69E-14,-144.33052,-63.88825317,1
"C6H5OH,phenol",C6H6O,g,C   6.00H   6.00O   1.00    0.00    0.00,0,94.11124,-96399,1000,6000,17496.669,4462031.21,-21655.0785,48.1500573,-0.003568248,6.33E-07,-6.04E-11,2.40E-15,111371.747,-286.0447664,1
benzyl radical,C7H7,g,C   7.00H   7.00    0.00    0.00    0.00,0,91.13048,210500,1000,6000,18554.892,5297206.15,-25998.7928,55.0972079,-0.004977515,9.46E-07,-9.64E-11,4.06E-15,173836.332,-334.3808042,1
heptacarbon octahydride,C7H8,g,C   7.00H   8.00    0.00    0.00    0.00,0,92.13842,50170,1000,6000,17940.345,6184514.65,-29902.798,59.8200377,-0.005696983,1.08E-06,-1.10E-10,4.62E-15,178204.489,-369.8080794,1
"C8H8,styrene",C8H8,g,C   8.00H   8.00    0.00    0.00    0.00,0,104.14912,148300,1000,6000,20940,1638245.27,-20099.5737,55.9434214,-0.004059454,1.00E-06,-1.30E-10,6.75E-15,122748.462,-330.9262202,1
ethylbenzene,C8H10,g,C   8.00H  10.00    0.00    0.00    0.00,0,106.165,29920,1000,6000,22280,5206906.88,-30750.4076,68.231595,-0.006146404,1.39E-06,-1.66E-10,8.09E-15,175873.128,-418.4631888,1
isooctane,C8H18,g,C   8.00H  18.00    0.00    0.00    0.00,0,114.22852,-224010,1000,6000,32170,25389182.1,-91319.3062,138.715481,-0.022738197,5.27E-06,-6.58E-10,3.31E-14,529263.833,-919.630761,1
naphthalene,C10H8,g,C  10.00H   8.00    0.00    0.00    0.00,0,128.17052,150580,1000,6000,20713.076,5905864.57,-31631.4491,70.3025259,-0.006018396,1.14E-06,-1.16E-10,4.89E-15,196251.27,-434.7785692,1
"C12H10,biphenyl",C12H10,g,C  12.00H  10.00    0.00    0.00    0.00,0,154.2078,182130,1000,6000,26783.511,7480124.81,-39280.1951,86.6141146,-0.007946027,1.53E-06,-1.58E-10,6.70E-15,243800.666,-538.133071,1
"C12D10,biphenyl",C12D10,g,C  12.00D  10.00    0.00    0.00    0.00,0,164.26942,138415.822,1000,5000,0,0,0,30.90506,0.030349988,-1.11E-05,1.78E-09,-1.03E-13,2883.4453,-142.4390028,1
calcium,Ca,g,CA  1.00    0.00    0.00    0.00    0.00,0,40.078,177800,1000,6000,6197.428,7547341.24,-21486.42662,25.30849567,-0.011037737,2.29E-06,-1.21E-10,-4.02E-15,158586.2323,-160.9512955,1
calcium bromide,CaBr,g,CA  1.00BR  1.00    0.00    0.00    0.00,0,119.982,-24868.681,1000,6000,9856.119,2783236.402,-8458.20373,14.3175656,-0.005430782,1.52E-06,-1.83E-10,7.86E-15,49312.7068,-65.370011,1
calcium bromide,CaBr2,g,CA  1.00BR  2.00    0.00    0.00    0.00,0,199.886,-387197.3,1000,6000,15603.2,-22198.46426,-4.46315533,7.50375511,-1.64E-06,3.88E-10,-4.68E-14,2.26E-18,-48854.3682,-5.59032425,1
calcium chloride,CaCl,g,CA  1.00CL  1.00    0.00    0.00    0.00,0,75.5307,-103772.885,1000,6000,9595.115,1629182.545,-4766.22302,9.65892977,-0.002523044,5.83E-07,-4.10E-11,8.81E-17,16625.99241,-33.9873177,1
calcium chloride,CaCl2,g,CA  1.00CL  2.00    0.00    0.00    0.00,0,110.9834,-485243.477,1000,6000,14857.023,-35957.6878,-8.79649563,7.50725691,-3.13E-06,7.32E-10,-8.78E-14,4.21E-18,-60667.7966,-8.55353156,1
calcium fluoride,CaF,g,CA  1.00F   1.00    0.00    0.00    0.00,0,59.0764032,-276403.79,1000,6000,9132.11,519588.267,-1512.321567,5.86927625,-0.000388252,-2.48E-08,3.75E-11,-3.47E-15,-24888.14584,-8.6146637,1
calcium fluoride,CaF2,g,CA  1.00F   2.00    0.00    0.00    0.00,0,78.0748064,-790828.409,1000,6000,12811.591,-82804.0944,-31.15950071,7.02357737,-9.52E-06,2.12E-09,-2.44E-13,1.14E-17,-97294.6677,-7.54624334,1
calcium hydride,CaH,g,CA  1.00H   1.00    0.00    0.00    0.00,0,41.08594,229409.105,1000,6000,8705.105,-2696952.529,8607.05975,-7.02745482,0.007467916,-2.32E-06,3.42E-10,-1.89E-14,-27738.19107,78.4582201,1
calcium iodide,CaI,g,CA  1.00I   1.00    0.00    0.00    0.00,0,166.98247,12183.32,1000,6000,10018.12,1771071.309,-5683.64373,11.53857476,-0.00419402,1.29E-06,-1.73E-10,8.38E-15,35832.932,-44.0591757,1
calcium iodide,CaI2,g,CA  1.00I   2.00    0.00    0.00    0.00,0,293.88694,-259319.505,1000,6000,16050.995,-16237.27104,-2.859530722,7.50243219,-1.07E-06,2.54E-10,-3.08E-14,1.49E-18,-33463.4117,-3.56730574,1
calcium oxide,CaO,g,CA  1.00O   1.00    0.00    0.00    0.00,0,56.0774,38005.308,1000,6000,8953.108,-49131061.7,149586.595,-168.1654149,0.093819503,-2.46E-05,3.07E-09,-1.49E-13,-946151.172,1235.694769,1
calcium hydroxide,CaOH,g,CA  1.00O   1.00H   1.00    0.00    0.00,0,57.08534,-173307.35,1000,6000,11049.697,1979972.994,-5598.88099,11.51348706,-0.001668265,3.31E-07,-1.79E-11,-3.58E-16,13401.96822,-46.4608426,1
Ca(OH)2,CaO2H2,g,CA  1.00O   2.00H   2.00    0.00    0.00,0,74.09268,-598338.869,1000,6000,16592.281,1721854.884,-4702.21767,13.96947691,0.000198379,-1.24E-07,2.03E-11,-1.14E-15,-44437.6135,-52.8744486,1
calcium sulfide,CaS,g,CA  1.00S   1.00    0.00    0.00    0.00,0,72.144,121475.313,1000,6000,9360.113,-15683532.14,52938.5581,-63.2246724,0.040277264,-1.11E-05,1.46E-09,-7.38E-14,-317202.267,479.960622,1
dicalcium,Ca2,g,CA  2.00    0.00    0.00    0.00    0.00,0,80.156,341765.336,1000,6000,11273.136,240596.6267,57.7580382,2.347436675,0.000119928,-4.33E-08,7.02E-12,-3.71E-16,40818.754,18.95399607,1
cadmium,Cd,g,CD  1.00    0.00    0.00    0.00    0.00,0,112.411,111800,1000,6000,6197.428,-269975.7467,786.600114,1.628169079,0.000459412,-1.15E-07,1.07E-11,8.79E-17,7675.14826,12.20006052,1
chlorine,Cl,g,CL  1.00    0.00    0.00    0.00    0.00,0,35.4527,121301,1000,6000,6271.588,-169793.293,608.172646,2.12866409,0.000130737,-2.64E-08,2.84E-12,-1.25E-16,9934.3874,8.84475941,1
chlorine monocarbide mononitride,ClCN,g,CL  1.00C   1.00N   1.00    0.00    0.00,0,61.47014,134200,1000,6000,10669.042,346757.312,-1957.85737,8.80780615,-0.000438836,1.02E-07,-1.11E-11,4.99E-16,25819.23944,-26.36885997,1
chlorine monofluoride,ClF,g,CL  1.00F   1.00    0.00    0.00    0.00,0,54.4511032,-55700.993,1000,6000,8908.107,3045867.173,-9979.32826,16.84162254,-0.007465851,2.34E-06,-3.37E-10,1.76E-14,54471.208,-87.0798792,1
chlorine trifluoride,ClF3,g,CL  1.00F   3.00    0.00    0.00    0.00,0,92.4479096,-164600,1000,6000,13728.449,-229495.6235,-122.0741,10.09124644,-3.65E-05,8.06E-09,-9.23E-13,4.27E-17,-22828.40447,-25.11605966,1
chlorine pentafluoride,ClF5,g,CL  1.00F   5.00    0.00    0.00    0.00,0,130.444716,-238000,1000,6000,17930.396,-426936.697,-205.784051,16.1546162,-6.21E-05,1.38E-08,-1.58E-12,7.33E-17,-33614.7939,-57.5750656,1
chlorine monoxide,ClO,g,CL  1.00O   1.00    0.00    0.00    0.00,0,51.4521,101621.115,1000,6000,9522.115,409376.052,-1765.985112,7.08790063,-0.00182845,7.10E-07,-1.21E-10,7.08E-15,21518.91784,-16.68646423,1
chlorine dioxide,ClO2,g,CL  1.00O   2.00    0.00    0.00    0.00,0,67.4515,105000,1000,6000,10800.646,-163379.3802,-316.148067,7.00978726,0.000283797,-1.18E-07,2.92E-11,-2.02E-15,11849.46452,-10.91169494,1
molecular chlorine,Cl2,g,CL  2.00    0.00    0.00    0.00    0.00,0,70.9054,0,1000,6000,9181.11,6092566.75,-19496.2688,28.5453491,-0.014499683,4.46E-06,-6.36E-10,3.33E-14,121211.722,-169.077832,1
dichlorine monoxide,Cl2O,g,CL  2.00O   1.00    0.00    0.00    0.00,0,86.9048,79000,1000,6000,11695.482,-127174.3461,-67.4196322,7.05002245,-1.99E-05,4.37E-09,-4.98E-13,2.30E-17,7387.2893,-8.79748761,1
cobalt,Co,g,CO  1.00    0.00    0.00    0.00    0.00,0,58.9332,428441.6,1000,6000,6359.768,1381841.305,-3756.03668,6.65713065,-0.001269247,1.46E-07,6.57E-12,-1.10E-15,74944.4291,-22.58500836,1
chromium,Cr,g,CR  1.00    0.00    0.00    0.00    0.00,0,51.9961,397480,1000,6000,6197.428,-11202207.89,34011.6369,-36.5706217,0.021102969,-5.52E-06,7.17E-10,-3.51E-14,-168899.344,286.4481267,1
chromium nitride,CrN,g,CR  1.00N   1.00    0.00    0.00    0.00,0,66.00284,505021.51,1000,5000,0,0,0,3.8649602,0.000851605,-4.41E-07,1.07E-10,-8.37E-15,59477.437,5.29506757,1
chromium oxide,CrO,g,CR  1.00O   1.00    0.00    0.00    0.00,0,67.9955,188285.447,1000,5000,0,0,0,4.0139818,0.000627002,-2.80E-07,6.00E-11,-4.41E-15,21346.693,5.5517151,1
chromium oxide,CrO2,g,CR  1.00O   2.00    0.00    0.00    0.00,0,83.9949,-75312.81,1000,5000,0,0,0,5.8499998,0.00127251,-5.49E-07,1.05E-10,-7.40E-15,-11042.183,-1.74497632,1
chromium oxide,CrO3,g,CR  1.00O   3.00    0.00    0.00    0.00,0,99.9943,-292879.663,1000,5000,0,0,0,8.1628946,0.002045084,-8.86E-07,1.70E-10,-1.20E-14,-38092.557,-15.8958945,1
cesium,Cs,g,CS  1.00    0.00    0.00    0.00    0.00,0,132.90545,76500,1000,6000,6197.428,6166040.9,-18961.75522,24.83229903,-0.012519772,3.31E-06,-3.35E-10,9.63E-15,128511.1231,-152.2942188,1
cesium chloride,CsCl,g,CS  1.00CL  1.00    0.00    0.00    0.00,0,168.35815,-240166.789,1000,5000,0,0,0,4.4798455,0.000109492,-4.00E-09,2.06E-13,2.22E-17,-30235.809,5.217317436,1
cesium fluoride,CsF,g,CS  1.00F   1.00    0.00    0.00    0.00,0,151.9038532,-356483.908,1000,5000,0,0,0,4.4373309,0.00012715,-2.05E-08,2.98E-12,-1.48E-16,-44227.995,3.873556245,1
cesium oxide,CsO,g,CS  1.00O   1.00    0.00    0.00    0.00,0,148.90485,62763.052,1000,5000,0,0,0,4.4660282,0.000115632,-6.00E-09,1.32E-13,5.76E-17,6195.0309,5.214549092,1
cesium hydroxide,CsOH,g,CS  1.00O   1.00H   1.00    0.00    0.00,0,149.91279,-256000,1000,6000,11834.689,896717.113,-2323.978587,7.95964487,0.000110115,-6.47E-08,1.05E-11,-5.82E-16,-17362.58234,-18.64239624,1
dicesium,Cs2,g,CS  2.00    0.00    0.00    0.00    0.00,0,265.8109,107377.133,1000,6000,0,0,0,6.86645178,-0.003990143,1.32E-06,-1.63E-10,6.88E-15,10805.4293,-4.297494198,1
cesium chloride,Cs2Cl2,g,CS  2.00CL  2.00    0.00    0.00    0.00,0,336.7163,-659831.356,1000,5000,0,0,0,9.9424375,6.27E-05,-2.63E-08,4.89E-12,-3.36E-16,-82345.855,-10.59806004,1
cesium fluoride,Cs2F2,g,CS  2.00F   2.00    0.00    0.00    0.00,0,303.8077064,-890123.055,1000,5000,0,0,0,9.8793725,0.000126748,-5.09E-08,8.97E-12,-5.81E-16,-110050.57,-14.0548213,1
cesium oxide,Cs2O,g,CS  2.00O   1.00    0.00    0.00    0.00,0,281.8103,-92046.757,1000,5000,0,0,0,6.8979467,0.000101651,-3.81E-08,6.15E-12,-3.58E-16,-13169.989,-1.165916464,1