Name,Formula,State,Formula-Raw,Phase-Flag,Molecular-Weight,hf298,T_low,T_high,dh298_0,a1,a2,a3,a4,a5,a6,a7,b1,b2,eq
carbon tetrachloride,CCl4,g,C   1.00CL  4.00    0.00    0.00    0.00,0,153.8215,-95600,1000,6000,17158.512,-304307.8255,-216.8170491,13.16132386,-6.43E-05,1.42E-08,-1.62E-12,7.48E-17,-15123.2007,-39.9684547,1
carbon monofluoride,CF,g,C   1.00F   1.00    0.00    0.00    0.00,0,31.0091032,242300,1000,6000,9082.053,-73030.1173,-310.4325519,4.68755965,-1.75E-05,1.18E-08,-1.88E-12,1.90E-16,29349.02936,-2.321779244,1
carbon monofluoride tribromide,CFBr3,g,C   1.00F   1.00BR  3.00    0.00    0.00,0,270.7211032,-120000,1000,6000,18243.104,-272901.9621,-332.859175,13.24828118,-9.93E-05,2.19E-08,-2.52E-12,1.17E-16,-17301.58683,-36.26857692,1
carbon monofluoride monochloride,CFCl,g,C   1.00F   1.00CL  1.00    0.00    0.00,0,66.4618032,25872.113,1000,6000,10928.721,1945366.777,-7156.8148,15.83935195,-0.00535246,1.60E-06,-2.09E-10,9.98E-15,45199.215,-72.49953024,1
carbon monofluoride monochloride dibromide,CFClBr2,g,C   1.00F   1.00CL  1.00BR  2.00    0.00,0,226.2698032,-175000,1000,6000,17498.023,-296169.5804,-352.90241,13.26323916,-0.000105275,2.33E-08,-2.67E-12,1.24E-16,-23877.41139,-36.84815638,1
carbon monofluoride dichloride,CFCl2,g,C   1.00F   1.00CL  2.00    0.00    0.00,0,101.9145032,-105000,1000,6000,13216.954,-265308.9592,-446.990377,10.33337979,-0.00013339,2.95E-08,-3.38E-12,1.57E-16,-13931.49991,-25.56840439,1
carbon monofluoride dichloride monobromide,CFCl2Br,g,C   1.00F   1.00CL  2.00BR  1.00    0.00,0,181.8185032,-235000,1000,6000,16730.573,-321661.068,-388.110483,13.28959746,-0.000115844,2.56E-08,-2.94E-12,1.36E-16,-30976.17329,-38.71132565,1
carbon monofluoride trichloride,CFCl3,g,C   1.00F   1.00CL  3.00    0.00    0.00,0,137.3672032,-283700,1000,6000,16080.46,-344247.069,-421.74795,13.31496258,-0.000126099,2.79E-08,-3.20E-12,1.48E-16,-36715.7746,-41.57016165,1
carbon difluoride,CF2,g,C   1.00F   2.00    0.00    0.00    0.00,0,50.0075064,-186600,1000,6000,10347,-1985921.862,4474.86108,2.053677908,0.00254212,-6.47E-07,7.99E-11,-3.82E-15,-54348.511,22.88995544,1
carbon difluoride dibromide,CF2Br2,g,C   1.00F   2.00BR  2.00    0.00    0.00,0,209.8155064,-380000,1000,6000,16279.997,-332810.724,-618.305353,13.46155155,-0.000184832,4.09E-08,-4.70E-12,2.18E-16,-47152.6933,-41.05263139,1
carbon difluoride monochloride,CF2Cl,g,C   1.00F   2.00CL  1.00    0.00    0.00,0,85.4602064,-275000,1000,6000,12432.273,-280276.7108,-685.922045,10.51133006,-0.000204647,4.53E-08,-5.20E-12,2.41E-16,-33082.5076,-28.74822953,1
carbon difluoride monochloride monobromide,CF2ClBr,g,C   1.00F   2.00CL  1.00BR  1.00    0.00,0,165.3642064,-435000,1000,6000,15528.243,-359357.495,-653.698713,13.48804664,-0.000195457,4.33E-08,-4.97E-12,2.30E-16,-53652.8669,-42.24722904,1
carbon difluoride dichloride,CF2Cl2,g,C   1.00F   2.00CL  2.00    0.00    0.00,0,120.9129064,-490800,1000,6000,14873.998,-382846.555,-696.031514,13.5199159,-0.000208322,4.61E-08,-5.30E-12,2.46E-16,-60200.7281,-44.82433645,1
carbon trifluoride,CF3,g,C   1.00F   3.00    0.00    0.00    0.00,0,69.0059096,-467400,1000,6000,11479.084,-300992.5372,-1045.774154,10.77830669,-0.000311223,6.88E-08,-7.90E-12,3.67E-16,-54263.67,-34.16192034,1
carbon trifluoride monobromide,CF3Br,g,C   1.00F   3.00BR  1.00    0.00    0.00,0,148.9099096,-648800,1000,6000,14444.028,-383419.421,-971.892781,13.7247746,-0.000290184,6.42E-08,-7.38E-12,3.42E-16,-77653.1843,-47.17365875,1
carbon trifluoride monochloride,CF3Cl,g,C   1.00F   3.00CL  1.00    0.00    0.00,0,104.4586096,-704200,1000,6000,13770.726,-409136.054,-1013.156215,13.75548856,-0.000302456,6.69E-08,-7.69E-12,3.57E-16,-84166.5262,-49.09398931,1
carbon tetrafluoride,CF4,g,C   1.00F   4.00    0.00    0.00    0.00,0,88.0043128,-933500,1000,6000,12730.313,-416418.379,-1414.899259,14.05138627,-0.000419996,9.28E-08,-1.06E-11,4.94E-16,-109514.1882,-54.87202173,1
carbon monohydride,CH,g,C   1.00H   1.00    0.00    0.00    0.00,0,13.01864,597338,1000,6000,8625,2060733.772,-5396.12964,7.85618794,-0.000796576,1.76E-07,-1.98E-11,5.03E-16,106219.245,-31.54718017,1
carbon monohydride tribromide,CHBr3,g,C   1.00H   1.00BR  3.00    0.00    0.00,0,252.73064,16700,1000,6000,15906.601,627412.218,-3378.67915,14.8784913,-0.000593256,1.08E-07,-1.06E-11,4.32E-16,18767.33073,-53.11884786,1
carbon monohydride monochloride,CHCl,g,C   1.00H   1.00CL  1.00    0.00    0.00,0,48.47134,297100,1000,6000,10154.502,9452674.48,-27738.25775,33.0531766,-0.010490767,2.19E-06,-2.31E-10,9.76E-15,212103.9456,-207.2912849,1
carbon monohydride monochloride dibromide,CHClBr2,g,C   1.00H   1.00CL  1.00BR  2.00    0.00,0,208.27934,10000,1000,6000,15291.236,604353.962,-3438.41833,14.94180471,-0.000622931,1.15E-07,-1.15E-11,4.73E-16,18225.76072,-54.07389182,1
carbon monohydride dichloride,CHCl2,g,C   1.00H   1.00CL  2.00    0.00    0.00,0,83.92404,95800,1000,6000,12800,884940.301,-3526.97198,11.8637237,-0.000500239,6.13E-08,-1.89E-12,-1.23E-16,30711.37949,-40.88909582,1
carbon monohydride dichloride monobromide,CHCl2Br,g,C   1.00H   1.00CL  2.00BR  1.00    0.00,0,163.82804,-45000,1000,6000,14729.895,592475.941,-3509.42818,14.99343143,-0.000643267,1.20E-07,-1.20E-11,4.97E-16,11972.22316,-56.0264328,1
carbon monohydride trichloride,CHCl3,g,C   1.00H   1.00CL  3.00    0.00    0.00,0,119.37674,-102700,1000,6000,14305.493,613421.884,-3714.55512,15.10718257,0.000236578,1.30E-07,-1.27E-11,5.25E-16,6199.91182,-59.92154424,1
carbon monohydride monofluoride,CHF,g,C   1.00H   1.00F   1.00    0.00    0.00,0,32.0170432,108800,1000,6000,9983,7670328.62,-22860.73931,27.68821442,-0.007752178,1.51E-06,-1.59E-10,6.92E-15,158010.8059,-170.385879,1
carbon monohydride monofluoride dibromide,CHFBr2,g,C   1.00H   1.00F   1.00BR  2.00    0.00,0,191.8250432,-175000,1000,6000,14359.556,593568.248,-3742.65029,15.1718484,-0.000715817,1.36E-07,-1.39E-11,5.85E-16,-2347.729721,-57.65787939,1
carbon monohydride monofluoride monochloride,CHFCl,g,C   1.00H   1.00F   1.00CL  1.00    0.00,0,67.4697432,-83144.704,1000,6000,11145.955,662150.121,-3808.82314,12.23860673,-0.000746614,1.43E-07,-1.48E-11,6.27E-16,10188.68887,-46.58224084,1
carbon monohydride monofluoride monochloride monobromide,CHFClBr,g,C   1.00H   1.00F   1.00CL  1.00BR  1.00,0,147.3737432,-230000,1000,6000,13787.186,579894.586,-3823.01126,15.22774213,-0.000737208,1.41E-07,-1.44E-11,6.08E-16,-8554.35094,-59.03426791,1
carbon monohydride monofluoride dichloride,CHFCl2,g,C   1.00H   1.00F   1.00CL  2.00    0.00,0,102.9224432,-284900,1000,6000,13285.927,565697.196,-3891.99271,15.2788123,-0.000757578,1.45E-07,-1.49E-11,6.32E-16,-14814.7847,-61.70725235,1
carbon monohydride difluoride,CHF2,g,C   1.00H   1.00F   2.00    0.00    0.00,0,51.0154464,-238900,1000,6000,10920,552681.191,-3696.01042,12.08610698,-0.000649859,1.12E-07,-9.81E-12,3.35E-16,-9437.06022,-47.04418874,1
carbon monohydride difluoride monobromide,CHF2Br,g,C   1.00H   1.00F   2.00BR  1.00    0.00,0,130.9194464,-422000,1000,6000,13169.504,576732.196,-4177.61091,15.50139673,-0.00084896,1.66E-07,-1.73E-11,7.43E-16,-29662.15259,-63.49301408,1
carbon monohydride difluoride monochloride,CHF2Cl,g,C   1.00H   1.00F   2.00CL  1.00    0.00,0,86.4681464,-482800,1000,6000,12362.102,562266.841,-4293.10044,15.57620973,-0.000876286,1.71E-07,-1.79E-11,7.72E-16,-36374.0057,-66.07130761,1
carbon monohydride trifluoride,CHF3,g,C   1.00H   1.00F   3.00    0.00    0.00,0,70.0138496,-693300,1000,6000,11566.886,568593.953,-4728.56968,15.86751918,-0.000738363,1.97E-07,-2.06E-11,8.97E-16,-59230.6371,-71.61441636,1
carbon dihydride,CH2,g,C   1.00H   2.00    0.00    0.00    0.00,0,14.02658,388800,1000,6000,10027.422,2510415.94,-7953.93239,12.3882957,-0.00177591,3.22E-07,-3.07E-11,1.20E-15,96010.2856,-61.55984406,1
carbon dihydride dibromide,CH2Br2,g,C   1.00H   2.00BR  2.00    0.00    0.00,0,173.83458,-14800,1000,6000,12614.407,1528243.72,-6673.30211,16.70201067,-0.001166284,2.12E-07,-2.08E-11,8.43E-16,36002.7329,-74.47977708,1
carbon dihydride monochloride,CH2Cl,g,C   1.00H   2.00CL  1.00    0.00    0.00,0,49.47928,119200,1000,6000,10979.92,1662402.02,-6441.03471,13.59745277,-0.0011405,2.09E-07,-2.05E-11,8.38E-16,52128.4646,-61.48524708,1
carbon dihydride monochloride monobromide,CH2ClBr,g,C   1.00H   2.00CL  1.00BR  1.00    0.00,0,129.38328,-45000,1000,6000,12190.747,1525025.678,-6823.36011,16.82772117,-0.001219754,2.25E-07,-2.22E-11,9.11E-16,33202.5653,-76.37593106,1
carbon dihydride dichloride,CH2Cl2,g,C   1.00H   2.00CL  2.00    0.00    0.00,0,84.93198,-95000,1000,6000,11854.077,1529283.055,-6976.97044,16.9415683,-0.001265063,2.34E-07,-2.33E-11,9.63E-16,28063.27866,-79.494688,1
carbon dihydride monofluoride,CH2F,g,C   1.00H   2.00F   1.00    0.00    0.00,0,33.0249832,-31800,1000,6000,11129,-359375157,921130.49,-887.42977,0.427126549,-0.000106248,1.32E-08,-6.50E-13,-6015409.46,6529.098563,1
carbon dihydride monofluoride monobromide,CH2FBr,g,C   1.00H   2.00F   1.00BR  1.00    0.00,0,112.9289832,-215000,1000,6000,11622.585,1539996.347,-7231.61995,17.14575038,-0.001350237,2.54E-07,-2.56E-11,1.07E-15,15096.4722,-80.62114847,1
carbon dihydride monofluoride monochloride,CH2FCl,g,C   1.00H   2.00F   1.00CL  1.00    0.00,0,68.4776832,-265700,1000,6000,11252.779,1533648.782,-7369.66071,17.25145396,-0.001393149,2.63E-07,-2.67E-11,1.12E-15,9754.46364,-83.08254954,1
carbon dihydride difluoride,CH2F2,g,C   1.00H   2.00F   2.00    0.00    0.00,0,52.0233864,-452300,1000,6000,10693.327,1546546.355,-7876.70383,17.68750495,-0.001581188,3.07E-07,-3.18E-11,1.36E-15,-9801.2853,-89.072781,1
carbon trihydride,CH3,g,C   1.00H   3.00    0.00    0.00    0.00,0,15.03452,146900,1000,6000,10366.34,2760904.27,-9336.55279,14.8769863,-0.001439228,2.44E-07,-2.22E-11,8.39E-16,74847.6479,-79.19489326,1
carbon trihydride monobromide,CH3Br,g,C   1.00H   3.00BR  1.00    0.00    0.00,0,94.93852,-37700,1000,6000,10612.655,2524823.219,-10118.62235,18.65887871,-0.001797602,3.30E-07,-3.25E-11,1.33E-15,55409.6786,-97.78555538,1
carbon trihydride monochloride,CH3Cl,g,C   1.00H   3.00CL  1.00    0.00    0.00,0,50.48722,-81870,1000,6000,10416.144,2522470.775,-10301.18166,18.82729495,-0.001872314,3.47E-07,-3.46E-11,1.43E-15,51114.3423,-100.657412,1
hydroxymethylene radical,CH3F,g,C   1.00H   3.00F   1.00    0.00    0.00,0,34.0329232,-237700,1000,6000,10135.229,2561892.955,-10860.51204,19.29446743,-0.00207098,3.93E-07,-3.99E-11,1.68E-15,35634.9716,-106.1158311,1
hydroxymethyl radical,CH3O,g,C   1.00H   3.00O   1.00    0.00    0.00,0,31.03392,-8900,1000,6000,11833.908,2528592.31,-9235.95197,17.1290849,-0.001310755,2.14E-07,-1.87E-11,6.85E-16,54183.956,-86.7489502,1
methoxide,CH3O,g,C   1.00H   3.00O   1.00    0.00    0.00,0,31.03392,13000,1000,6000,10745.287,2224626.76,-9720.56548,18.8248204,-0.001961523,3.79E-07,-3.96E-11,1.79E-15,58429.3185,-100.416811,1
methane,CH4,g,C   1.00H   4.00    0.00    0.00    0.00,0,16.04246,-74600,1000,6000,10016.198,3746265.7,-13888.5134,20.5402982,-0.001944197,4.32E-07,-4.06E-11,1.64E-15,75659.8868,-122.2977672,1
methanol,CH4O,g,C   1.00H   4.00O   1.00    0.00    0.00,0,32.04186,-200940,1000,6000,11435.277,3411560.75,-13454.9745,22.614046,-0.002141012,3.73E-07,-3.50E-11,1.37E-15,56360.6386,-127.781226,1
carbon moniodide,CI,g,C   1.00I   1.00    0.00    0.00    0.00,0,138.91517,570200.657,1000,6000,9497.157,-27181.7224,203.002866,4.34851596,0.000126973,-1.05E-08,1.57E-12,-7.18E-17,65995.8584,4.651562322,1
carbon mononitride,CN,g,C   1.00N   1.00    0.00    0.00    0.00,0,26.01744,438683.448,1000,6000,8672,-2227976.079,5040.66445,-0.212179448,0.001354881,1.33E-07,-6.94E-11,5.49E-15,17845.42332,32.8251552,1
CNN,CN2,g,C   1.00N   2.00    0.00    0.00    0.00,0,40.02418,633474.702,1000,6000,10368.306,608532.725,-2582.43506,8.69492616,-0.00018269,-1.36E-08,8.58E-12,-5.81E-16,90212.1503,-27.21343348,1
cobalt,CO,g,C   1.00O   1.00    0.00    0.00    0.00,0,28.0101,-110530,1000,6000,8671,461915.856,-1944.685748,5.91664709,-0.000566423,1.40E-07,-1.79E-11,9.62E-16,-2465.738441,-13.87402604,1
carbon monoxide monochloride,COCl,g,C   1.00O   1.00CL  1.00    0.00    0.00,0,63.4628,-16000,1000,6000,11550.749,344320.857,-1793.0027,8.39260686,-0.000537399,9.11E-08,-3.11E-12,-2.04E-16,6913.56293,-19.98812919,1
carbon monoxide dichloride,COCl2,g,C   1.00O   1.00CL  2.00    0.00    0.00,0,98.9155,-219500,1000,6000,12878.622,-25461.27725,-1305.94338,10.92919845,-0.0003601,7.79E-08,-8.79E-12,4.03E-16,-22198.56143,-32.332863,1
carbon monoxide monofluoride,COF,g,C   1.00O   1.00F   1.00    0.00    0.00,0,47.0085032,-179413.27,1000,6000,10392.836,208436.5824,-1775.462902,8.32009205,-0.000481549,7.39E-08,-1.04E-12,-2.88E-16,-13203.4961,-22.03392272,1
carbon monoxide monofluoride monochloride,COFCl,g,C   1.00O   1.00F   1.00CL  1.00    0.00,0,82.4612032,-429492.862,1000,6000,11903.798,-53208.5991,-1580.898321,11.12684431,-0.000437235,9.46E-08,-1.07E-11,4.90E-16,-45997.3875,-35.25794032,1
carbon monoxide difluoride,COF2,g,C   1.00O   1.00F   2.00    0.00    0.00,0,66.0069064,-640000,1000,6000,11133.929,-40728.5282,-1974.036774,11.40366508,-0.000543726,1.18E-07,-1.33E-11,6.08E-16,-69077.7808,-40.09716354,1
carbon hydroxide monochloride,COHCl,g,C   1.00O   1.00H   1.00CL  1.00    0.00,0,64.47074,-164211.876,1000,6000,11006.282,831883.551,-4416.84372,12.70658744,-0.000936131,1.86E-07,-1.96E-11,8.51E-16,4330.31664,-51.45055356,1
carbon hydroxide monofluoride,COHF,g,C   1.00O   1.00H   1.00F   1.00    0.00,0,48.0164432,-374590.361,1000,6000,10449.795,857899.885,-4791.9993,12.93979389,-0.001018306,2.02E-07,-2.14E-11,9.30E-16,-18789.07196,-55.27480364,1
carbon monoxide monosulfide,COS,g,C   1.00O   1.00S   1.00    0.00    0.00,0,60.0761,-141700,1000,6000,9941.597,195869.6362,-1756.061149,8.71032183,-0.000413888,1.02E-07,-1.16E-11,5.69E-16,-8927.78737,-26.36247495,1
carbon dioxide,CO2,g,C   1.00O   2.00    0.00    0.00    0.00,0,44.0095,-393510,1000,6000,9365.469,117696.9434,-1788.801467,8.29154353,-9.22E-05,4.87E-09,-1.89E-12,6.33E-16,-39083.4501,-26.52683962,1
COOH,CO2H,g,C   1.00O   2.00H   1.00    0.00    0.00,0,45.01744,-213000,1000,6000,10813.349,929306.699,-4483.00051,12.421968,-0.000746302,1.33E-07,-1.28E-11,5.14E-16,-852.020695,-50.6804608,1
carbon monophosphide,CP,g,C   1.00P   1.00    0.00    0.00    0.00,0,42.984461,520158.802,1000,6000,8715.301,-5646862.02,17362.8071,-16.3305993,0.011433478,-2.82E-06,3.29E-10,-1.48E-14,-48723.1655,148.0113451,1
cesium,CS,g,C   1.00S   1.00    0.00    0.00    0.00,0,44.0767,279771.878,1000,6000,8708.378,-971961.2,2339.20906,1.70938511,0.00157718,-4.15E-07,4.50E-11,-5.95E-16,16957.1024,18.74054728,1
dicesium,CS2,g,C   1.00S   2.00    0.00    0.00    0.00,0,76.1427,116700,1000,6000,10664.223,-1390420.939,3354.97003,3.019263826,0.002876423,-9.08E-07,1.37E-10,-7.00E-15,-10138.95456,15.65106491,1
dicarbon,C2,g,C   2.00    0.00    0.00    0.00    0.00,0,24.0214,830457,1000,6000,10169,-968890.957,3560.9902,-0.506351169,0.002945093,-7.14E-07,8.67E-11,-4.08E-15,76818.6,33.39896056,1
dicarbon monochloride,C2Cl,g,C   2.00CL  1.00    0.00    0.00    0.00,0,59.4741,534083.071,1000,6000,10780.626,213701.7514,-1630.430045,8.62340716,-0.000425317,9.04E-08,-1.01E-11,4.57E-16,71710.3473,-24.12955465,1
dicarbon dichloride,C2Cl2,g,C   2.00CL  2.00    0.00    0.00    0.00,0,94.9268,200000,1000,6000,14592.612,296148.2255,-2044.167935,11.87518625,-0.000511456,1.07E-07,-1.18E-11,5.33E-16,33167.9888,-40.00745746,1
dicarbon trichloride,C2Cl3,g,C   2.00CL  3.00    0.00    0.00    0.00,0,130.3795,190271.591,1000,6000,16150.257,-220357.0165,-1073.085495,13.78388266,-0.000309464,6.78E-08,-7.73E-12,3.57E-16,24311.19041,-43.4231023,1
dicarbon tetrachloride,C2Cl4,g,C   2.00CL  4.00    0.00    0.00    0.00,0,165.8322,-11000,1000,6000,19605.642,-300231.185,-1132.13781,16.83044135,-0.000328732,7.22E-08,-8.24E-12,3.81E-16,-706.955206,-59.79956926,1
dicarbon hexachloride,C2Cl6,g,C   2.00CL  6.00    0.00    0.00    0.00,0,236.7376,-141500,1000,6000,27129.39,-557576.648,-497.988271,22.37066427,-0.000147846,3.26E-08,-3.73E-12,1.72E-16,-22544.11904,-83.8192038,1
dicarbon monofluoride,C2F,g,C   2.00F   1.00    0.00    0.00    0.00,0,43.0198032,353847.482,1000,6000,10367.036,289878.0324,-2016.654368,8.87506634,-0.000516701,1.09E-07,-1.21E-11,5.48E-16,52412.9323,-27.73105522,1
dicarbon monofluoride monochloride,C2FCl,g,C   2.00F   1.00CL  1.00    0.00    0.00,0,78.4725032,33766.399,1000,6000,13876.507,347134.329,-2348.439488,12.06875206,-0.000580483,1.21E-07,-1.33E-11,5.99E-16,15020.45984,-42.52442064,1
dicarbon monofluoride trichloride,C2FCl3,g,C   2.00F   1.00CL  3.00    0.00    0.00,0,149.3779032,-166000,1000,6000,18731.914,-283041.9579,-1473.622602,17.0785634,-0.000426407,9.35E-08,-1.07E-11,4.93E-16,-17385.83785,-61.96890865,1
dicarbon difluoride,C2F2,g,C   2.00F   2.00    0.00    0.00    0.00,0,62.0182064,-144665.688,1000,6000,13266.418,419277.332,-2715.029927,12.30366114,-0.000664723,1.38E-07,-1.52E-11,6.81E-16,-4181.32631,-46.70120602,1
dicarbon difluoride dichloride,C2F2Cl2,g,C   2.00F   2.00CL  2.00    0.00    0.00,0,132.9236064,-337837,1000,6000,17936.029,-870205.868,726.319089,15.30706863,0.00030446,-7.04E-08,8.28E-12,-3.90E-16,-52087.9132,-49.98428824,1
dicarbon trifluoride,C2F3,g,C   2.00F   3.00    0.00    0.00    0.00,0,81.0166096,-228181.093,1000,6000,14163.567,-124292.5975,-2137.201615,14.55041017,-0.000609328,1.33E-07,-1.51E-11,6.98E-16,-19772.04276,-54.20967232,1
dicarbon trifluoride monochloride,C2F3Cl,g,C   2.00F   3.00CL  1.00    0.00    0.00,0,116.4693096,-515200,1000,6000,17128.149,-216188.8941,-2195.350628,17.59632568,-0.000628402,1.37E-07,-1.57E-11,7.22E-16,-55149.5158,-69.22128665,1
tetrafluoroethylene,C2F4,g,C   2.00F   4.00    0.00    0.00    0.00,0,100.0150128,-659500,1000,6000,16330.554,-162934.8913,-2604.072169,17.88508072,-0.000739818,1.61E-07,-1.84E-11,8.46E-16,-70062.6475,-74.543066,1
hexafluoroethane,C2F6,g,C   2.00F   6.00    0.00    0.00    0.00,0,138.0118192,-1344000,1000,6000,20272.04,-1011461.523,-942.472007,22.02582595,-0.00013161,1.87E-08,-3.47E-12,2.49E-16,-165741.7898,-93.02367534,1
ethynyl radical,C2H,g,C   2.00H   1.00    0.00    0.00    0.00,0,25.02934,566205.472,1000,6000,10454.472,3995864.09,-11969.0929,17.1383304,-0.00333696,6.00E-07,-5.50E-11,2.02E-15,143142.317,-92.85925892,1
dicarbon monohydride monochloride,C2HCl,g,C   2.00H   1.00CL  1.00    0.00    0.00,0,60.48204,212856.775,1000,6000,11788.381,1152211.658,-4461.39105,12.81389516,-0.000679864,1.15E-07,-1.05E-11,3.95E-16,50711.8692,-53.20818676,1
dicarbon monohydride trichloride,C2HCl3,g,C   2.00H   1.00CL  3.00    0.00    0.00,0,131.38744,-19100,1000,6000,16604.624,604945.033,-4237.08516,18.46287907,-0.00081382,1.55E-07,-1.59E-11,6.70E-16,18290.9783,-76.9846836,1
dicarbon monohydride monofluoride,C2HF,g,C   2.00H   1.00F   1.00    0.00    0.00,0,44.0277432,41692.304,1000,6000,11445.908,1234330.392,-4819.53819,13.02333516,-0.000749524,1.29E-07,-1.18E-11,4.54E-16,32367.832,-56.40762798,1
dicarbon monohydride monofluoride dichloride,C2HFCl2,g,C   2.00H   1.00F   1.00CL  2.00    0.00,0,114.9331432,-168648,1000,6000,16259.29,407176.189,-3808.35082,18.2116,-0.000727982,1.38E-07,-1.41E-11,5.92E-16,-2675.911299,-75.67469866,1
dicarbon monohydride difluoride monochloride,C2HF2Cl,g,C   2.00H   1.00F   2.00CL  1.00    0.00,0,98.4788464,-333654,1000,6000,15262.754,583029.12,-3810.28784,17.98999204,-0.000588796,1.00E-07,-9.15E-12,3.46E-16,-22058.9373,-75.90922147,1
dicarbon monohydride trifluoride,C2HF3,g,C   2.00H   1.00F   3.00    0.00    0.00,0,82.0245496,-491000,1000,6000,14327.512,691707.965,-5260.22176,19.1526947,-0.001072463,2.10E-07,-2.20E-11,9.47E-16,-32476.9292,-87.50405174,1
"CHCO,ketyl",C2HO,g,C   2.00H   1.00O   1.00    0.00    0.00,0,41.02874,161084,1000,6000,11239.131,2154213.19,-7508.89222,14.0790264,-0.00125693,2.24E-07,-2.14E-11,8.49E-16,64564.7834,-65.04951868,1