Name,Formula,State,Formula-Raw,Phase-Flag,Molecular-Weight,hf298,T_low,T_high,dh298_0,a1,a2,a3,a4,a5,a6,a7,b1,b2,eq
vanadium nitride,VN,g,V   1.00N   1.00    0.00    0.00    0.00,0,64.94824,523013.121,1000,5000,0,0,0,4.185228,0.000615147,-3.58E-07,1.07E-10,-9.73E-15,61511.54,3.77618661,1
vanadium oxide,VO,g,V   1.00O   1.00    0.00    0.00    0.00,0,66.9409,127615.031,1000,5000,0,0,0,3.9114702,0.000775478,-4.23E-07,1.16E-10,-1.01E-14,14065.204,5.07185409,1
vanadium oxide,VO2,g,V   1.00O   2.00    0.00    0.00    0.00,0,82.9403,-232634.437,1000,5000,0,0,0,5.9470147,0.001168678,-5.05E-07,9.67E-11,-6.82E-15,-29983.802,-2.73802511,1
tungsten,W,g,W   1.00    0.00    0.00    0.00    0.00,0,183.84,851243.526,1000,6000,6216.526,-8048745.96,14657.00424,-0.25085315,-0.002596487,1.41E-06,-2.23E-10,1.26E-14,-3091.130919,39.5582219,1
tungsten chloride,WCl6,g,W   1.00CL  6.00    0.00    0.00    0.00,0,396.5562,-493712,1000,6000,30790.955,-151673.5473,-34.5137925,19.02867176,-1.24E-05,2.92E-09,-3.51E-13,1.69E-17,-65357.7979,-58.9491564,1
tungsten monoxide tetrachloride,WOCl4,g,W   1.00O   1.00CL  4.00    0.00    0.00,0,341.6502,-573493,1000,6000,22271.379,-304902.8285,-353.942586,16.26432703,-0.000105825,2.34E-08,-2.69E-12,1.25E-16,-72725.4674,-49.9176178,1
tungsten oxide,WO2,g,W   1.00O   2.00    0.00    0.00    0.00,0,215.8388,29061.744,1000,6000,10714.848,-753740.668,3204.64305,0.67019656,0.004488239,-8.86E-07,6.25E-11,-9.05E-16,-17694.2023,34.0572401,1
tungsten dioxide dichloride,WO2Cl2,g,W   1.00O   2.00CL  2.00    0.00    0.00,0,286.7442,-671532,1000,6000,19503.817,-240479.173,-306.8379644,13.22814502,-9.10E-05,2.01E-08,-2.30E-12,1.06E-16,-83674.9306,-34.9155694,1
tungsten oxide,WO3,g,W   1.00O   3.00    0.00    0.00    0.00,0,231.8382,-319725.213,1000,6000,13267.943,1732203.64,-6284.71978,16.81358864,-0.003472089,8.08E-07,-6.59E-11,1.14E-15,-2473.075565,-74.0747409,1
(WO3)2,W2O6,g,W   2.00O   6.00    0.00    0.00    0.00,0,463.6764,-1210443.298,1000,6000,25543.014,-667407.243,-703.251836,22.51617461,-0.000203547,4.44E-08,-5.05E-12,2.32E-16,-150269.9479,-86.1398898,1
(WO3)3,W3O9,g,W   3.00O   9.00    0.00    0.00    0.00,0,695.5146,-2013291.101,1000,6000,40688.367,-945026.331,-1133.837222,34.8347923,-0.000330136,7.23E-08,-8.22E-12,3.79E-16,-248848.6308,-144.1551053,1
(WO3)4,W4O12,g,W   4.00O  12.00    0.00    0.00    0.00,0,927.3528,-2817433.885,1000,6000,54538.739,-1277530.217,-1566.538532,47.1536352,-0.000456326,9.99E-08,-1.14E-11,5.23E-16,-347741.847,-205.1588395,1
(WO3)5,W5O15,g,W   5.00O  15.00    0.00    0.00    0.00,0,1159.191,-3551492.326,1000,6000,68473.453,-1600667.953,-1958.437864,59.4422739,-0.000570511,1.25E-07,-1.42E-11,6.54E-16,-438409.586,-266.0238838,1
xenon,Xe,g,XE  1.00    0.00    0.00    0.00    0.00,0,131.29,0,1000,6000,6197.428,4025.22668,-12.09507521,2.514153347,-8.25E-06,2.53E-09,-3.89E-13,2.36E-17,-668.580073,6.06367644,1
zinc,Zn,g,ZN  1.00    0.00    0.00    0.00    0.00,0,65.39,130400,1000,6000,6197.428,-175559.1489,498.413924,1.969386292,0.000260881,-5.63E-08,2.72E-12,4.27E-16,11737.73458,8.96108565,1
zirconium,Zr,g,ZR  1.00    0.00    0.00    0.00    0.00,0,91.224,599318.611,1000,6000,6815.611,6006771.84,-15669.60605,17.9698235,-0.00676341,1.73E-06,-2.06E-10,9.33E-15,173463.6249,-105.1117377,1
zirconium nitride,ZrN,g,ZR  1.00N   1.00    0.00    0.00    0.00,0,105.23074,713372,1000,6000,0,0,0,4.14378922,0.000404307,-1.45E-07,2.48E-11,-1.54E-15,84461.42,4.15937906,1
zirconium oxide,ZrO,g,ZR  1.00O   1.00    0.00    0.00    0.00,0,107.2234,83922.708,1000,6000,8970.108,464809.831,344.231447,4.81577918,-0.000466063,2.14E-07,-2.05E-11,4.08E-16,7317.3407,1.502933548,1
zirconium oxide,ZrO2,g,ZR  1.00O   2.00    0.00    0.00    0.00,0,123.2228,-286189.801,1000,5000,0,0,0,6.1418545,0.000977037,-4.33E-07,8.50E-11,-6.13E-15,-36446.178,-2.70978912,1
Air,N1.56O0.42Ar0.01,g,N   1.56O   0.42AR  0.01C   0.00    0.00,0,28.9651784,-125.53,1000,6000,8649.264,241521.443,-1257.8746,5.14455867,-0.000213854,7.07E-08,-1.07E-11,6.58E-16,6462.26319,-8.14740867,1
perchloryl fluoride,ClO3F,g,CL  1.00O   3.00F   1.00    0.00    0.00,0,102.4493032,-23800,1000,6000,13298.823,-391041.344,-1193.25902,13.886633,-0.000354168,7.83E-08,-8.98E-12,4.16E-16,-1274.85199,-51.0649344,1