Name,Formula,State,Formula-Raw,Phase-Flag,Molecular-Weight,hf298,T_low,T_high,dh298_0,a1,a2,a3,a4,a5,a6,a7,b1,b2,eq
cesium dioxide dihydride,Cs2O2H2,g,CS  2.00O   2.00H   2.00    0.00    0.00,0,299.82558,-653000,1000,6000,23937.353,1802857.941,-4656.35475,16.93566597,0.00021174,-1.27E-07,2.07E-11,-1.15E-15,-51908.1369,-58.4971916,1
cesium sulfate,Cs2SO4,g,CS  2.00S   1.00O   4.00    0.00    0.00,0,361.8745,-1122581.398,1000,5000,0,0,0,15.419045,0.004052765,-1.79E-06,3.50E-10,-2.52E-14,-140367.75,-41.49218456,1
copper,Cu,g,CU  1.00    0.00    0.00    0.00    0.00,0,63.546,337400,1000,6000,6197.428,2308090.411,-8503.261,14.67859102,-0.008467137,2.89E-06,-4.27E-10,2.30E-14,92075.3562,-78.5470156,1
copper chloride,CuCl,g,CU  1.00CL  1.00    0.00    0.00    0.00,0,98.9987,91088.442,1000,5000,0,0,0,4.3902988,0.000183495,-5.71E-08,1.13E-11,-8.20E-16,9609.7266,3.39216514,1
copper fluoride,CuF,g,CU  1.00F   1.00    0.00    0.00    0.00,0,82.5444032,-12552.131,1000,5000,0,0,0,4.1227399,0.000631635,-3.35E-07,8.08E-11,-5.78E-15,-2800.5953,3.48564571,1
copper fluoride,CuF2,g,CU  1.00F   2.00    0.00    0.00    0.00,0,101.5428064,-266945.896,1000,5000,0,0,0,6.8184236,-0.000164979,2.03E-07,-2.55E-11,1.21E-16,-34322.744,-7.12862921,1
copper oxide,CuO,g,CU  1.00O   1.00    0.00    0.00    0.00,0,79.5454,306276.724,1000,5000,0,0,0,4.2723625,0.000447133,-2.40E-07,6.04E-11,-4.25E-15,35535.349,3.72701889,1
dicopper,Cu2,g,CU  2.00    0.00    0.00    0.00    0.00,0,127.092,485356.654,1000,5000,0,0,0,4.4239734,0.00020249,-6.45E-08,1.41E-11,-7.60E-16,57038.131,3.78535579,1
copper chloride,Cu3Cl3,g,CU  3.00CL  3.00    0.00    0.00    0.00,0,296.9961,-258575.302,1000,5000,0,0,0,15.626127,0.000433738,-1.95E-07,3.85E-11,-2.79E-15,-35881.853,-37.7523345,1
deuterium,D,g,D   1.00    0.00    0.00    0.00    0.00,0,2.014102,221720.228,1000,6000,6197.428,60.5001921,-0.181076606,2.500210817,-1.22E-07,3.72E-11,-5.66E-15,3.39E-19,25922.43752,0.590212537,1
d bromide,DBr,g,D   1.00BR  1.00    0.00    0.00    0.00,0,81.918102,-37036.447,1000,6000,8668.104,665241.758,-2593.70189,6.88551106,-0.001103112,2.89E-07,-3.15E-11,1.01E-15,10375.5773,-19.7343358,1
d chloride,DCl,g,D   1.00CL  1.00    0.00    0.00    0.00,0,37.466802,-93547.003,1000,6000,8661.104,411728.335,-1764.53491,5.6688768,-0.000347596,5.88E-08,3.76E-13,-5.16E-16,-1541.26014,-12.7566039,1
d fluoride,DF,g,D   1.00F   1.00    0.00    0.00    0.00,0,21.0125052,-276227.001,1000,6000,8638.104,800115.502,-2438.38243,5.62066028,-0.00020204,1.71E-08,2.70E-12,-2.89E-16,-18574.4276,-14.7300139,1
d monoxide monochloride,DOCl,g,D   1.00O   1.00CL  1.00    0.00    0.00,0,53.466202,-78243.308,1000,5000,0,0,0,4.4350761,0.002532239,-1.03E-06,1.90E-10,-1.27E-14,-10919.402,2.72715969,1
d oxide,DO2,g,D   1.00O   2.00    0.00    0.00    0.00,0,34.0129,6487.344,1000,6000,10065.344,-1267224.927,2799.947016,2.325174609,0.002726325,-6.31E-07,6.73E-11,-2.77E-15,-19594.11733,17.89922833,1
deuterium,D2,g,D   2.00    0.00    0.00    0.00    0.00,0,4.028204,0,1000,6000,8569.103,821515.641,-2365.61983,5.34297106,6.93E-05,-8.52E-08,2.46E-11,-1.96E-15,14342.1244,-17.1259786,1
d oxide,D2O,g,D   2.00O   1.00    0.00    0.00    0.00,0,20.027604,-249210,1000,6000,9960.017,1544193.253,-5474.2389,10.17542424,-0.000961942,2.04E-07,-2.05E-11,8.51E-16,2983.24898,-44.6501157,1
d oxide,D2O2,g,D   2.00O   2.00    0.00    0.00    0.00,0,36.027004,-144300,1000,6000,11565.639,1147867.936,-5225.76093,13.11088701,-0.001179812,2.73E-07,-2.96E-11,1.31E-15,12195.80532,-56.905382,1
d sulfide,D2S,g,D   2.00S   1.00    0.00    0.00    0.00,0,36.094204,-23890.981,1000,5000,0,0,0,3.6662901,0.003499226,-1.42E-06,2.67E-10,-1.87E-14,-4214.7308,3.79969969,1
fluorine,F,g,F   1.00    0.00    0.00    0.00    0.00,0,18.9984032,79380,1000,6000,6518.46,14735.06226,81.4992736,2.444371819,2.12E-05,-4.55E-09,5.11E-13,-2.33E-17,8388.37465,5.47871064,1
fluorine monocarbide mononitride,FCN,g,F   1.00C   1.00N   1.00    0.00    0.00,0,45.0158432,34327.854,1000,6000,10128.96,398187.355,-2302.971079,9.02708139,-0.000522871,1.19E-07,-1.28E-11,5.73E-16,15884.49451,-29.84971849,1
fluorine monoxide,FO,g,F   1.00O   1.00    0.00    0.00    0.00,0,34.9978032,109012.1,1000,6000,9388,-1597940.503,4377.37638,-0.489750764,0.002682336,-6.90E-07,7.25E-11,-2.73E-15,-16442.48211,35.5992361,1
dioxygen monofluoride,FO2,g,F   1.00O   2.00    0.00    0.00    0.00,0,50.9972032,25400,1000,6000,11255.813,-1213177.293,2493.436116,4.46503884,0.000941621,-6.43E-08,-1.09E-11,1.22E-15,-15968.25164,8.65541751,1
dioxygen monofluoride,FO2,g,F   1.00O   2.00    0.00    0.00    0.00,0,50.9972032,378600,1000,6000,10538.382,-621186.734,936.947459,6.40155875,0.000213611,-4.34E-08,4.67E-12,-2.06E-16,36383.5727,-6.15026433,1
difluorine,F2,g,F   2.00    0.00    0.00    0.00    0.00,0,37.9968064,0,1000,6000,8825.106,-2941167.79,9456.5977,-7.73861615,0.007644713,-2.24E-06,2.92E-10,-1.43E-14,-60710.0561,84.2383508,1
difluorine monoxide,F2O,g,F   2.00O   1.00    0.00    0.00    0.00,0,53.9962064,24500,1000,6000,10911.521,-188537.4518,-210.0729689,7.15123916,0.000132769,1.80E-08,-1.42E-12,6.49E-17,1449.129965,-12.57858336,1
dioxygen difluoride,F2O2,g,F   2.00O   2.00    0.00    0.00    0.00,0,69.9956064,19200,1000,6000,13778.453,-219056.3532,-391.092081,10.29107144,-0.000116335,2.57E-08,-2.95E-12,1.37E-16,827.802094,-27.56752555,1
"FS2F,fluorodisu",F2S2,g,F   2.00S   2.00    0.00    0.00    0.00,0,102.1288064,-336435,1000,6000,14595.3,-207709.7921,-109.4539831,10.08136946,-3.24E-05,7.13E-09,-8.13E-13,3.76E-17,-43494.4606,-23.46913121,1
iron,Fe,g,FE  1.00    0.00    0.00    0.00    0.00,0,55.845,415471,1000,6000,6850.327,-1954923.682,6737.1611,-5.48641097,0.004378803,-1.12E-06,1.54E-10,-8.02E-15,7137.37006,65.0497986,1
iron pentacarbide pentoxide,FeC5O5,g,FE  1.00C   5.00O   5.00    0.00    0.00,0,195.8955,-727858.869,1000,5000,0,0,0,21.164021,0.010333103,-4.33E-06,8.20E-10,-5.78E-14,-94888.934,-72.07369028,1
iron chloride,FeCl,g,FE  1.00CL  1.00    0.00    0.00    0.00,0,91.2977,251035.967,1000,5000,0,0,0,4.6940669,0.000116041,-2.08E-08,-1.76E-12,5.23E-16,28790.344,4.1935222,1
iron chloride,FeCl2,g,FE  1.00CL  2.00    0.00    0.00    0.00,0,126.7504,-140999.994,1000,5000,0,0,0,6.9492601,0.000533716,7.02E-08,-6.15E-11,6.79E-15,-19045.832,-3.75953808,1
iron chloride,FeCl3,g,FE  1.00CL  3.00    0.00    0.00    0.00,0,162.2031,-253119.989,1000,5000,0,0,0,9.7771106,0.000244214,-1.03E-07,1.92E-11,-1.32E-15,-33439.57,-14.5491648,1
iron oxide,FeO,g,FE  1.00O   1.00    0.00    0.00    0.00,0,71.8444,251047.084,1000,5000,0,0,0,4.2049817,0.000268385,-8.94E-08,3.19E-11,-3.39E-15,28829.17,4.83038983,1
Fe(OH)2,FeO2H2,g,FE  1.00O   2.00H   2.00    0.00    0.00,0,89.85968,-330536,1000,6000,0,0,0,8.96262012,0.004201373,-1.61E-06,2.68E-10,-1.63E-14,-42799.4358,-18.6912701,1
iron chloride,Fe2Cl4,g,FE  2.00CL  4.00    0.00    0.00    0.00,0,253.5008,-431373.784,1000,5000,0,0,0,15.3575,0.000642079,2.08E-08,-5.16E-11,6.07E-15,-56510.037,-31.8966108,1
iron chloride,Fe2Cl6,g,FE  2.00CL  6.00    0.00    0.00    0.00,0,324.4062,-654377.6,1000,6000,0,0,0,21.5645031,0.000462349,-1.85E-07,3.20E-11,-2.01E-15,-85243.2375,-58.653837,1
gallium monobromide,GaBr,g,GA  1.00BR  1.00    0.00    0.00    0.00,0,149.627,-17967.88,1000,6000,9932.119,335980.503,-840.683668,5.14508473,-3.27E-05,-7.67E-08,3.64E-11,-3.36E-15,2035.179445,-0.427789408,1
gallium dibromide,GaBr2,g,GA  1.00BR  2.00    0.00    0.00    0.00,0,229.531,-149180.952,1000,6000,14024.948,-330229.436,476.672265,7.1047254,-0.000552277,3.16E-07,-5.51E-11,3.17E-15,-23656.8362,-1.162714892,1
gallium tribromide,GaBr3,g,GA  1.00BR  3.00    0.00    0.00    0.00,0,309.435,-292962.663,1000,6000,19037.337,-51030.6375,-9.39520969,10.00768765,-3.30E-06,7.68E-10,-9.18E-14,4.39E-18,-38334.0215,-14.10315914,1
gallium monochloride,GaCl,g,GA  1.00CL  1.00    0.00    0.00    0.00,0,105.1757,-69621.44,1000,6000,9609.116,-486484.224,1452.870183,2.719542959,0.001144286,-3.43E-07,5.47E-11,-3.02E-15,-18950.84035,15.70925717,1
gallium dichloride,GaCl2,g,GA  1.00CL  2.00    0.00    0.00    0.00,0,140.6284,-220978.909,1000,6000,13513.391,-344540.53,471.443716,7.10877548,-0.000553943,3.16E-07,-5.52E-11,3.18E-15,-32309.3616,-3.74484714,1
gallium trichloride,GaCl3,g,GA  1.00CL  3.00    0.00    0.00    0.00,0,176.0811,-432624.753,1000,6000,17375.247,-94669.1731,-25.61468254,10.02010048,-8.35E-06,1.90E-09,-2.23E-13,1.05E-17,-55182.0143,-18.6495915,1
gallium monofluoride,GaF,g,GA  1.00F   1.00    0.00    0.00    0.00,0,88.7214032,-232608.491,1000,6000,9081.109,-298339.2279,722.515787,3.63955743,0.000554674,-1.46E-07,2.18E-11,-1.03E-15,-34085.2871,7.55396,1
gallium difluoride,GaF2,g,GA  1.00F   2.00    0.00    0.00    0.00,0,107.7198064,-516712.441,1000,6000,12115.659,410025.136,-1723.259472,8.95132922,-0.001059206,2.75E-07,-2.91E-11,1.08E-15,-53765.716,-21.13835528,1
gallium trifluoride,GaF3,g,GA  1.00F   3.00    0.00    0.00    0.00,0,126.7182096,-921476.983,1000,6000,15223.017,-209696.176,-143.1211274,10.10568378,-4.18E-05,9.16E-09,-1.04E-12,4.80E-17,-113667.8134,-23.9253933,1
gallium monohydride,GaH,g,GA  1.00H   1.00    0.00    0.00    0.00,0,70.73094,214323.404,1000,6000,8673.104,3257993.99,-11090.99502,18.01126796,-0.008167719,2.60E-06,-3.81E-10,2.03E-14,93697.7824,-98.2090022,1
gallium moniodide,GaI,g,GA  1.00I   1.00    0.00    0.00    0.00,0,196.62747,44871.122,1000,6000,10109.122,1498356.654,-4551.96724,9.80300535,-0.002943736,8.66E-07,-1.11E-10,5.01E-15,32918.1191,-32.2735977,1
gallium diiodide,GaI2,g,GA  1.00I   2.00    0.00    0.00    0.00,0,323.53194,-28954.965,1000,6000,14470.935,-320287.975,479.650233,7.10233396,-0.000551266,3.16E-07,-5.51E-11,3.17E-15,-9180.91961,0.727520488,1
gallium triiodide,GaI3,g,GA  1.00I   3.00    0.00    0.00    0.00,0,450.43641,-115877.24,1000,6000,20122.76,-31640.4013,-4.20866283,10.00352001,-1.53E-06,3.61E-10,-4.35E-14,2.10E-18,-17000.58453,-10.90291552,1
gallium monoxide,GaO,g,GA  1.00O   1.00    0.00    0.00    0.00,0,85.7224,146823.607,1000,6000,8925.107,2937313.804,-11183.14112,18.59366773,-0.006854753,1.67E-06,-1.89E-10,7.97E-15,85302.4808,-99.0404048,1
gallium monohydroxide,GaOH,g,GA  1.00O   1.00H   1.00    0.00    0.00,0,86.73034,-143630.495,1000,6000,10583.608,842905.101,-2372.324595,8.00907109,8.78E-05,-5.94E-08,9.84E-12,-5.53E-16,-3751.78825,-21.71053719,1
digallium dibromide,Ga2Br2,g,GA  2.00BR  2.00    0.00    0.00    0.00,0,299.254,-136963.692,1000,6000,20793.308,-18853.73131,-1.263621802,10.00108034,-4.77E-07,1.14E-10,-1.38E-14,6.69E-19,-19510.53843,-11.41667594,1
digallium tetrabromide,Ga2Br4,g,GA  2.00BR  4.00    0.00    0.00    0.00,0,459.062,-415820.034,1000,6000,30591.766,-57421.6721,-7.16013737,16.00598947,-2.61E-06,6.15E-10,-7.41E-14,3.57E-18,-54933.8976,-34.7927166,1
digallium hexabromide,Ga2Br6,g,GA  2.00BR  6.00    0.00    0.00    0.00,0,618.87,-673688.732,1000,6000,41151.266,-95261.73,-14.4468188,22.01192546,-5.15E-06,1.20E-09,-1.44E-13,6.93E-18,-87822.233,-57.6589512,1
digallium dichloride,Ga2Cl2,g,GA  2.00CL  2.00    0.00    0.00    0.00,0,210.3514,-220972.686,1000,6000,19488.425,-36689.542,-4.43458068,10.00373051,-1.63E-06,3.85E-10,-4.65E-14,2.24E-18,-29656.33085,-14.69536245,1
digallium tetrachloride,Ga2Cl4,g,GA  2.00CL  4.00    0.00    0.00    0.00,0,281.2568,-602326.828,1000,6000,27315.392,-112711.0409,-21.38517542,16.01738077,-7.42E-06,1.72E-09,-2.05E-13,9.80E-18,-77468.5338,-41.4728151,1
digallium hexachloride,Ga2Cl6,g,GA  2.00CL  6.00    0.00    0.00    0.00,0,352.1622,-962463.532,1000,6000,36359.799,-189844.5426,-44.1365524,22.03505047,-1.47E-05,3.37E-09,-3.98E-13,1.88E-17,-122696.9998,-67.4533365,1
digallium difluoride,Ga2F2,g,GA  2.00F   2.00    0.00    0.00    0.00,0,177.4428064,-606231.344,1000,6000,17147.856,-87732.3493,-19.8377587,10.0159403,-6.74E-06,1.56E-09,-1.85E-13,8.78E-18,-76073.6863,-19.08325521,1
digallium tetrafluoride,Ga2F4,g,GA  2.00F   4.00    0.00    0.00    0.00,0,215.4396128,-1325002.958,1000,6000,22653.242,-270436.609,-104.9957196,16.07903965,-3.18E-05,7.05E-09,-8.10E-13,3.76E-17,-164416.9589,-48.9659173,1
digallium hexafluoride,Ga2F6,g,GA  2.00F   6.00    0.00    0.00    0.00,0,253.4364192,-2017623.843,1000,6000,30131.476,-436866.48,-212.8208368,22.15886373,-6.35E-05,1.40E-08,-1.60E-12,7.41E-17,-249429.8707,-77.8763583,1
digallium diiodide,Ga2I2,g,GA  2.00I   2.00    0.00    0.00    0.00,0,393.25494,13520.947,1000,6000,21497.947,-12190.56501,-0.528755447,10.00045392,-2.01E-07,4.80E-11,-5.83E-15,2.83E-19,-1393.258606,-9.05261491,1
digallium tetriodide,Ga2I4,g,GA  2.00I   4.00    0.00    0.00    0.00,0,647.06388,-159267.987,1000,6000,32583.813,-31712.9976,-2.287068836,16.00194812,-8.59E-07,2.04E-10,-2.48E-14,1.20E-18,-24019.40505,-30.08672521,1
digallium hexiodide,Ga2I6,g,GA  2.00I   6.00    0.00    0.00    0.00,0,900.87282,-317294.623,1000,6000,43573.378,-60156.9815,-6.32920923,22.0053304,-2.33E-06,5.51E-10,-6.66E-14,3.21E-18,-44886.9938,-51.6100875,1
digallium monoxide,Ga2O,g,GA  2.00O   1.00    0.00    0.00    0.00,0,155.4454,-99457.457,1000,6000,12162.595,-119387.4986,-87.1934161,7.0646782,-2.57E-05,5.65E-09,-6.45E-13,2.98E-17,-13936.94796,-6.9428013,1
germanium,Ge,g,GE  1.00    0.00    0.00    0.00    0.00,0,72.61,367800,1000,6000,7398.584,-856541.384,3917.95866,-1.809888212,0.002276482,-5.37E-07,5.98E-11,-2.54E-15,19565.18798,38.4134679,1
germanium monobromide,GeBr,g,GE  1.00BR  1.00    0.00    0.00    0.00,0,152.514,137440.771,1000,6000,9866.131,-741799.553,2259.50643,2.66946965,0.00093053,-2.47E-07,3.63E-11,-1.82E-15,525.959547,19.3952254,1
germanium dibromide,GeBr2,g,GE  1.00BR  2.00    0.00    0.00    0.00,0,232.418,-60962.897,1000,6000,14193.463,-26255.592,-4.3225236,7.00370883,-1.66E-06,4.02E-10,-4.99E-14,2.47E-18,-9482.88781,-1.67653595,1
germanium tribromide,GeBr3,g,GE  1.00BR  3.00    0.00    0.00    0.00,0,312.322,-119031.308,1000,6000,18549.492,-54339.267,-9.28032795,10.00765019,-3.30E-06,7.71E-10,-9.24E-14,4.43E-18,-17426.97092,-13.66960704,1
germanium tetrabromide,GeBr4,g,GE  1.00BR  4.00    0.00    0.00    0.00,0,392.226,-291000,1000,6000,23963.218,-69777.5791,-11.79873115,13.00953955,-4.02E-06,9.20E-10,-1.08E-13,5.04E-18,-39041.4816,-26.89447543,1
germanium monochloride,GeCl,g,GE  1.00CL  1.00    0.00    0.00    0.00,0,108.0627,69027.753,1000,6000,9596.668,-488269.322,1657.78149,3.0958198,0.000728101,-1.84E-07,2.58E-11,-1.21E-15,-3657.99458,14.7505861,1
germanium dichloride,GeCl2,g,GE  1.00CL  2.00    0.00    0.00    0.00,0,143.5154,-171000,1000,6000,13276.791,-48860.5225,-11.369524,7.00917469,-3.90E-06,9.02E-10,-1.07E-13,5.12E-18,-22751.8485,-4.65776572,1
germanium trichloride,GeCl3,g,GE  1.00CL  3.00    0.00    0.00    0.00,0,178.9681,-266950.589,1000,6000,17559.438,-75946.5007,-15.2299943,10.0121793,-5.11E-06,1.17E-09,-1.37E-13,6.44E-18,-35254.9292,-17.1930759,1
germanium tetrachloride,GeCl4,g,GE  1.00CL  4.00    0.00    0.00    0.00,0,214.4208,-500000,1000,6000,21136.625,-137626.121,-36.037695,13.0281667,-1.16E-05,2.64E-09,-3.07E-13,1.44E-17,-64262.8178,-33.1818013,1
germanium monofluoride,GeF,g,GE  1.00F   1.00    0.00    0.00    0.00,0,91.6084032,-70591.091,1000,6000,9144.823,-432401.774,1386.36188,3.35992739,0.000574758,-1.38E-07,1.83E-11,-7.76E-16,-18808.579,11.2195079,1
germanium difluoride,GeF2,g,GE  1.00F   2.00    0.00    0.00    0.00,0,110.6068064,-574000,1000,6000,11787.485,-127533.758,-71.6274055,7.05301156,-2.10E-05,4.61E-09,-5.25E-13,2.42E-17,-71126.3724,-8.48430571,1
germanium trifluoride,GeF3,g,GE  1.00F   3.00    0.00    0.00    0.00,0,129.6052096,-806332.833,1000,6000,14678.187,-206897.093,-111.20603,10.0825471,-3.28E-05,7.22E-09,-8.24E-13,3.80E-17,-99996.3274,-23.0364832,1
germanium tetrafluoride,GeF4,g,GE  1.00F   4.00    0.00    0.00    0.00,0,148.6036128,-1190150,1000,6000,17293.024,-325332.222,-253.771336,13.1878901,-7.46E-05,1.64E-08,-1.87E-12,8.61E-17,-146618.043,-41.2224207,1
germanium moniodide,GeI,g,GE  1.00I   1.00    0.00    0.00    0.00,0,199.51447,210975.084,1000,6000,10010.445,-949987.339,2470.87843,2.81309235,0.000843011,-2.32E-07,3.81E-11,-2.06E-15,7588.11883,19.4735807,1
germanium monoxide,GeO,g,GE  1.00O   1.00    0.00    0.00    0.00,0,88.6094,-37693.701,1000,6000,8782.711,-2160611.93,6045.06295,-2.47247615,0.003917074,-1.08E-06,1.35E-10,-4.60E-15,-44699.4109,50.4921534,1
germanium dioxide,GeO2,g,GE  1.00O   2.00    0.00    0.00    0.00,0,104.6088,-106171.998,1000,6000,11258.002,-172734.7526,-296.1154443,7.72072625,-8.82E-05,1.95E-08,-2.24E-12,1.04E-16,-13879.83288,-16.69888706,1
germanium monosulfide,GeS,g,GE  1.00S   1.00    0.00    0.00    0.00,0,104.676,92537.497,1000,6000,9142.857,-3566535.44,10997.3824,-8.97104261,0.008241849,-2.60E-06,3.96E-10,-2.11E-14,-59723.5509,97.6801113,1
germanium disulfide,GeS2,g,GE  1.00S   2.00    0.00    0.00    0.00,0,136.742,118817.831,1000,6000,13067.831,-89709.8036,-33.64377,7.52543372,-1.03E-05,2.28E-09,-2.63E-13,1.22E-17,11952.32103,-11.35201328,1
digermanium,Ge2,g,GE  2.00    0.00    0.00    0.00    0.00,0,145.22,471505.891,1000,6000,10702.611,1395098.81,-3279.462,7.92308056,-0.001528175,4.32E-07,-4.88E-11,1.98E-15,77026.8954,-18.9595906,1
hydrogen,H,g,H   1.00    0.00    0.00    0.00    0.00,0,1.00794,217998.828,1000,6000,6197.428,60.7877425,-0.181935442,2.500211817,-1.23E-07,3.73E-11,-5.69E-15,3.41E-19,25474.86398,-0.448191777,1
HALO,AlOH,g,AL  1.00O   1.00H   1.00    0.00    0.00,0,43.988878,1821.114,1000,6000,9935.217,78457.1898,-1515.584535,8.57273311,-0.00041424,8.93E-08,-1.01E-11,4.61E-16,6662.95254,-26.72917163,1
hydrogen aluminum dioxide,HAlO2,g,H   1.00AL  1.00O   2.00    0.00    0.00,0,59.988278,-355473.551,1000,6000,11980.604,698570.544,-2864.935042,10.86721494,-5.37E-05,-2.84E-08,6.29E-12,-3.89E-16,-27643.92495,-37.75886342,1
hydrogen monoboride monoxide,HBO,g,H   1.00B   1.00O   1.00    0.00    0.00,0,27.81834,-210621.205,1000,6000,9166.898,886186.023,-3913.06805,9.8886448,-0.000822227,1.62E-07,-1.70E-11,7.37E-16,-3161.852029,-40.3681272,1
hydrogen monoborate,HBO2,g,H   1.00B   1.00O   2.00    0.00    0.00,0,43.81774,-560210.053,1000,6000,10918.102,1049369.185,-4479.14548,11.97755861,-0.000473574,6.08E-08,-3.64E-12,6.16E-17,-42211.4947,-49.1136682,1
hydrogen monoboride monosulfide,HBS,g,H   1.00B   1.00S   1.00    0.00    0.00,0,43.88494,50208.558,1000,5000,0,0,0,4.4412265,0.002997983,-1.19E-06,2.12E-10,-1.35E-14,4440.2975,-0.646783174,1
hydrogen monobromide,HBr,g,H   1.00BR  1.00    0.00    0.00    0.00,0,80.91194,-36290,1000,6000,8648.104,1170033.949,-3786.52101,7.50314805,-0.001284964,3.21E-07,-3.44E-11,1.13E-15,18564.13349,-25.62712911,1
hydrogen monocarbide mononitride,HCN,g,H   1.00C   1.00N   1.00    0.00    0.00,0,27.02538,135000,1000,6000,9235.463,1236898.25,-4446.76184,9.73891163,-0.00058554,1.07E-07,-1.01E-11,3.35E-16,42445.9481,-40.0580075,1
hydrogen monocarbide monoxide,HCO,g,H   1.00C   1.00O   1.00    0.00    0.00,0,29.01804,42397.85,1000,6000,9989.45,691133.57,-3643.2178,9.58708488,-0.001104892,2.83E-07,-3.54E-11,1.74E-15,25356.22651,-35.70198702,1
HCCN,HC2N,g,H   1.00C   2.00N   1.00    0.00    0.00,0,39.03608,610430.628,1000,6000,11865.73,939576.184,-4091.11568,12.722392,-0.000687474,1.23E-07,-1.19E-11,4.76E-16,95851.9484,-52.48739832,1
hydrogen monochloride,HCl,g,H   1.00CL  1.00    0.00    0.00    0.00,0,36.46064,-92310,1000,6000,8640.104,915774.951,-2770.550211,5.97353979,-0.000362981,4.74E-08,2.81E-12,-6.66E-16,5674.95805,-16.42827056,1
hydrogen d,HD,g,H   1.00D   1.00    0.00    0.00    0.00,0,3.022042,323.302,1000,6000,8509.102,845583,-1956.578537,4.40437387,0.000575168,-2.13E-07,4.04E-11,-2.73E-15,12272.54163,-10.84742878,1
hydrogen d monoxide,HDO,g,H   1.00D   1.00O   1.00    0.00    0.00,0,19.021442,-245280.477,1000,6000,9925.723,1711376.798,-5322.8723,9.12435152,-0.000340066,4.15E-08,-4.78E-14,-1.47E-16,3245.22468,-37.7460068,1
hydrogen d dioxide,HDO2,g,H   1.00D   1.00O   2.00    0.00    0.00,0,35.020842,-140231.741,1000,6000,11334.965,1313170.99,-5175.61485,12.1648912,-0.000613663,1.23E-07,-1.08E-11,3.87E-16,13033.1385,-50.8526299,1