Name,Formula,State,Formula-Raw,Phase-Flag,Molecular-Weight,hf298,T_low,T_high,dh298_0,a1,a2,a3,a4,a5,a6,a7,b1,b2,eq
lithium oxide,Li2O,g,LI  2.00O   1.00    0.00    0.00    0.00,0,29.8814,-166935.467,1000,5000,0,0,0,6.6198748,0.000968794,-4.15E-07,7.86E-11,-5.50E-15,-22255.325,-10.821559,1
lithium oxide,Li2O2,g,LI  2.00O   2.00    0.00    0.00    0.00,0,45.8808,-242656.425,1000,5000,0,0,0,9.527526,0.00053021,-2.30E-07,4.40E-11,-3.10E-15,-32182.484,-21.859112,1
lithium dioxide dihydride,Li2O2H2,g,LI  2.00O   2.00H   2.00    0.00    0.00,0,47.89668,-737000,1000,6000,15579.04,1215363.488,-3982.02072,15.85873681,0.000750933,-2.59E-07,3.65E-11,-1.90E-15,-67387.7223,-66.4718155,1
lithium sulfate,Li2SO4,g,LI  2.00S   1.00O   4.00    0.00    0.00,0,109.9456,-1041842.051,1000,5000,0,0,0,14.929595,0.004609747,-2.04E-06,3.99E-10,-2.87E-14,-130635.28,-49.1664911,1
lithium chloride,Li3Cl3,g,LI  3.00CL  3.00    0.00    0.00    0.00,0,127.1811,-1004679.135,1000,5000,0,0,0,14.31944,0.001885401,-8.20E-07,1.57E-10,-1.11E-14,-125588.51,-42.7110226,1
lithium fluoride,Li3F3,g,LI  3.00F   3.00    0.00    0.00    0.00,0,77.8182096,-1517221.026,1000,5000,0,0,0,14.364422,0.00182855,-7.92E-07,1.52E-10,-1.07E-14,-187237.36,-45.060913,1
magnesium,Mg,g,MG  1.00    0.00    0.00    0.00    0.00,0,24.305,147100,1000,6000,6197.428,-536483.155,1973.709576,-0.36337769,0.002071796,-7.74E-07,1.36E-10,-7.77E-15,4829.18811,23.39104998,1
magnesium bromide,MgBr,g,MG  1.00BR  1.00    0.00    0.00    0.00,0,104.209,6163.315,1000,6000,9588.115,24776.04216,-641.768752,6.01993209,-0.001391004,6.44E-07,-1.20E-10,7.42E-15,2824.060334,-6.26443992,1
magnesium bromide,MgBr2,g,MG  1.00BR  2.00    0.00    0.00    0.00,0,184.113,-306743.219,1000,6000,14757.281,-43268.9901,-12.83036001,7.5100243,-4.15E-06,9.43E-10,-1.10E-13,5.20E-18,-39198.8602,-7.40916803,1
magnesium chloride,MgCl,g,MG  1.00CL  1.00    0.00    0.00    0.00,0,59.7577,-54704.887,1000,6000,9363.113,1041328.453,-3380.15833,8.63777547,-0.00244779,7.84E-07,-1.13E-10,5.81E-15,13271.88977,-27.03803148,1
magnesium monochloride monofluoride,MgClF,g,MG  1.00CL  1.00F   1.00    0.00    0.00,0,78.7561032,-569024,1000,6000,0,0,0,6.57082252,0.000448876,-1.78E-07,3.06E-11,-1.92E-15,-70523.5977,-5.83555414,1
magnesium chloride,MgCl2,g,MG  1.00CL  2.00    0.00    0.00    0.00,0,95.2104,-399169.896,1000,6000,13900.604,-68352.1701,-24.90899393,7.5187832,-7.56E-06,1.68E-09,-1.93E-13,8.97E-18,-50326.8691,-10.53269327,1
magnesium fluoride,MgF,g,MG  1.00F   1.00    0.00    0.00    0.00,0,43.3034032,-232266.792,1000,6000,8969.108,-169588.3782,358.875763,3.93600165,0.000481304,-1.66E-07,3.34E-11,-2.27E-15,-31693.2399,4.4105659,1
magnesium fluoride,MgF2,g,MG  1.00F   2.00    0.00    0.00    0.00,0,62.3018064,-735498.06,1000,6000,12622.44,-124441.9584,-86.8734375,7.56358123,-2.50E-05,5.44E-09,-6.16E-13,2.82E-17,-90600.1944,-14.2079699,1
magnesium hydride,MgH,g,MG  1.00H   1.00    0.00    0.00    0.00,0,25.31294,229786.104,1000,6000,8682.104,-100574.8598,1952.890106,-1.317191549,0.005603666,-2.14E-06,3.32E-10,-1.82E-14,15985.82755,34.3123316,1
magnesium iodide,MgI,g,MG  1.00I   1.00    0.00    0.00    0.00,0,151.20947,61206.317,1000,6000,9741.117,-2370562.811,6916.45248,-3.18389449,0.004051551,-9.77E-07,1.02E-10,-3.79E-15,-38185.5111,59.9310438,1
magnesium iodide,MgI2,g,MG  1.00I   2.00    0.00    0.00    0.00,0,278.11394,-171706.029,1000,6000,15294.471,-33402.9918,-9.34351178,7.50746854,-3.15E-06,7.24E-10,-8.57E-14,4.07E-18,-22945.55505,-5.24127259,1
magnesium nitride,MgN,g,MG  1.00N   1.00    0.00    0.00    0.00,0,38.31174,288691.678,1000,5000,0,0,0,4.2214417,0.000364892,-1.30E-07,2.44E-11,-1.69E-15,33382.931,2.73205196,1
magnesium oxide,MgO,g,MG  1.00O   1.00    0.00    0.00    0.00,0,40.3044,32261.307,1000,6000,8909.107,-15867383.67,34204.681,-17.74087677,0.007004963,-1.10E-06,8.96E-11,-3.05E-15,-230050.4434,173.8984472,1
magnesium hydroxide,MgOH,g,MG  1.00O   1.00H   1.00    0.00    0.00,0,41.31234,-132428.98,1000,6000,11124.284,664866.475,-1770.750355,7.26999927,0.000533684,-1.98E-07,3.03E-11,-1.55E-15,-6149.11456,-16.71027009,1
Mg(OH)2,MgO2H2,g,MG  1.00O   2.00H   2.00    0.00    0.00,0,58.31968,-551995.808,1000,6000,17131.558,1713709.254,-4730.00535,14.48925967,0.000190782,-1.23E-07,2.02E-11,-1.13E-15,-38877.2467,-58.4049812,1
magnesium sulfide,MgS,g,MG  1.00S   1.00    0.00    0.00    0.00,0,56.371,120649.311,1000,6000,9234.111,26507943.28,-77113.5586,84.6377168,-0.036442507,8.40E-06,-9.54E-10,4.26E-14,507893.117,-583.465583,1
dimagnesium,Mg2,g,MG  2.00    0.00    0.00    0.00    0.00,0,48.61,286513.315,1000,6000,9542.115,30382.24994,59.4524046,2.352706666,0.000137854,-5.90E-08,1.10E-11,-6.56E-16,33510.3656,15.88177377,1
magnesium fluoride,Mg2F4,g,MG  2.00F   4.00    0.00    0.00    0.00,0,124.6036128,-1718408.746,1000,5000,0,0,0,14.672016,0.001529932,-6.83E-07,1.35E-10,-9.74E-15,-211437.66,-44.278244,1
manganese,Mn,g,MN  1.00    0.00    0.00    0.00    0.00,0,54.938049,282400,1000,6000,6197.428,5855.15582,883.858844,-0.036486626,0.002703721,-1.32E-06,2.87E-10,-1.92E-14,28678.03487,22.92541198,1
molybdenum,Mo,g,MO  1.00    0.00    0.00    0.00    0.00,0,95.94,658500,1000,6000,6197.428,5573271,-16623.65811,21.35147077,-0.010030694,2.41E-06,-1.81E-10,1.03E-15,184264.6473,-127.5326434,1
molybdenum oxide,MoO3,g,MO  1.00O   3.00    0.00    0.00    0.00,0,143.9382,-364414.339,1000,5000,0,0,0,8.5599079,0.001513691,-6.14E-07,1.08E-10,-6.23E-15,-46765.27,-16.702825,1
molybdenum oxide,Mo2O6,g,MO  2.00O   6.00    0.00    0.00    0.00,0,287.8764,-1149456.646,1000,5000,0,0,0,13.923332,0.012908749,-7.39E-06,1.75E-09,-1.44E-13,-142928.31,-36.448614,1
molybdenum oxide,Mo3O9,g,MO  3.00O   9.00    0.00    0.00    0.00,0,431.8146,-1902048.676,1000,5000,0,0,0,22.262299,0.018584967,-1.06E-05,2.49E-09,-2.05E-13,-236200.38,-71.088186,1
molybdenum oxide,Mo4O12,g,MO  4.00O  12.00    0.00    0.00    0.00,0,575.7528,-2625550.231,1000,5000,0,0,0,30.431747,0.024732646,-1.41E-05,3.33E-09,-2.74E-13,-325903.63,-107.280337,1
molybdenum oxide,Mo5O15,g,MO  5.00O  15.00    0.00    0.00    0.00,0,719.691,-3329138.617,1000,5000,0,0,0,38.622543,0.030742742,-1.75E-05,4.13E-09,-3.41E-13,-413241.56,-143.736757,1
nitrogen,N,g,N   1.00    0.00    0.00    0.00    0.00,0,14.00674,472680,1000,6000,6197.428,88765.0138,-107.12315,2.362188287,0.000291672,-1.73E-07,4.01E-11,-2.68E-15,56973.5133,4.86523579,1
nitrogen monocarbide monoxide,NCO,g,N   1.00C   1.00O   1.00    0.00    0.00,0,42.01684,131843.928,1000,6000,10194.932,73929.2978,-1617.258377,8.57491953,-0.000376455,7.04E-08,-6.69E-12,2.99E-16,22894.07064,-25.52768024,1
imidogen-d,ND,g,N   1.00D   1.00    0.00    0.00    0.00,0,16.020842,375309.257,1000,5000,0,0,0,2.8297034,0.001658418,-6.33E-07,1.15E-10,-7.83E-15,44255.951,6.00662882,1
amidogen-d2,ND2,g,N   1.00D   2.00    0.00    0.00    0.00,0,18.034944,185353.401,1000,5000,0,0,0,3.3515391,0.003376316,-1.32E-06,2.68E-10,-2.08E-14,21077.749,4.37387975,1
triply deuterated ammonia,ND3,g,N   1.00D   3.00    0.00    0.00    0.00,0,20.049046,-58576.719,1000,5000,0,0,0,3.1961566,0.006731176,-2.64E-06,4.76E-10,-3.28E-14,-8396.6527,4.16290718,1
nitrogen monofluoride,NF,g,N   1.00F   1.00    0.00    0.00    0.00,0,33.0051432,232990.5,1000,6000,8738.105,800298.733,-3237.69658,8.70340887,-0.002701026,9.15E-07,-1.37E-10,7.23E-15,46428.1945,-30.19933066,1
nitrogen difluoride,NF2,g,N   1.00F   2.00    0.00    0.00    0.00,0,52.0035464,34421.447,1000,6000,10581.605,-194501.0078,-353.603407,7.26349436,-8.40E-05,2.33E-08,-2.67E-12,1.24E-16,3435.44059,-13.36102396,1
nitrogen trifluoride,NF3,g,N   1.00F   3.00    0.00    0.00    0.00,0,71.0019496,-131700,1000,6000,11854.511,-349626.876,-497.372867,10.36866128,8.90E-05,5.88E-08,-3.16E-12,1.71E-16,-17131.83352,-30.98920773,1
nitrogen monohydride,NH,g,N   1.00H   1.00    0.00    0.00    0.00,0,15.01468,357032.001,1000,6000,8601.103,1958141.991,-5782.8613,9.33574202,-0.00229291,6.08E-07,-6.65E-11,2.38E-15,78989.1234,-41.1697,1
nitrogen monohydride monofluoride,NHF,g,N   1.00H   1.00F   1.00    0.00    0.00,0,34.0130832,112000,1000,6000,10029.728,901385.712,-3463.38778,8.70579849,-0.000401895,2.32E-08,6.28E-12,-6.28E-16,33370.5903,-29.0047853,1
nitrogen monohydride difluoride,NHF2,g,N   1.00H   1.00F   2.00    0.00    0.00,0,53.0114864,-103000,1000,6000,10807.439,739397.516,-4004.38466,12.2131267,-0.000696991,1.27E-07,-1.25E-11,5.09E-16,9133.63846,-48.677746,1
nitrogen dihydride,NH2,g,N   1.00H   2.00    0.00    0.00    0.00,0,16.02262,189134.662,1000,6000,9937.815,1669007.546,-5610.37947,9.97187503,-0.001178276,4.23E-07,-6.54E-11,3.62E-15,56890.5776,-43.7935341,1
nitrogen dihydride monofluoride,NH2F,g,N   1.00H   2.00F   1.00    0.00    0.00,0,35.0210232,-75000,1000,6000,10104.976,1927205.34,-7500.44716,13.9558958,-0.001184804,2.05E-07,-1.91E-11,7.39E-16,35529.2734,-67.3118532,1
nitrogen trihydride,NH3,g,N   1.00H   3.00    0.00    0.00    0.00,0,17.03056,-45940,1000,6000,10043.121,2452389.535,-8040.89424,12.71346201,-0.000398019,3.55E-08,2.53E-12,-3.32E-16,43861.9196,-64.6233025,1
nitrogen monoxide,NO,g,N   1.00O   1.00    0.00    0.00    0.00,0,30.00614,91271.31,1000,6000,9179.11,223901.8716,-1289.651623,5.43393603,-0.000365603,9.88E-08,-1.42E-11,9.38E-16,17503.17656,-8.50166709,1
nitrogen monoxide monochloride,NOCl,g,N   1.00O   1.00CL  1.00    0.00    0.00,0,65.45884,52698.828,1000,6000,11364.488,-613341.333,-391.929883,9.13891722,-0.002605665,1.30E-06,-2.22E-10,1.28E-14,4517.32842,-23.07323931,1
nitrogen monoxide monofluoride,NOF,g,N   1.00O   1.00F   1.00    0.00    0.00,0,49.0045432,-65000,1000,6000,10720.271,1889069.274,-6731.02266,14.19018767,-0.003693125,9.94E-07,-1.08E-10,4.21E-15,32099.0078,-63.7026684,1
nitrogen monoxide trifluoride,NOF3,g,N   1.00O   1.00F   3.00    0.00    0.00,0,87.0013496,-187000,1000,6000,13697.653,-278621.894,-1252.17125,13.9081021,-0.000356607,7.78E-08,-8.85E-12,4.08E-16,-20257.4985,-51.0677772,1
nitrite,NO2,g,N   1.00O   2.00    0.00    0.00    0.00,0,46.00554,34193.019,1000,6000,10208.175,721300.157,-3832.6152,11.13963285,-0.002238062,6.55E-07,-7.61E-11,3.33E-15,25024.97403,-43.0512991,1
nitrite monochloride,NO2Cl,g,N   1.00O   2.00CL  1.00    0.00    0.00,0,81.45824,12500,1000,6000,12204.839,-108677.3327,-1452.231167,11.05656962,-0.00040001,9.10E-08,-1.04E-11,4.78E-16,6294.26732,-35.2124016,1
nitrite monofluoride,NO2F,g,N   1.00O   2.00F   1.00    0.00    0.00,0,65.0039432,-109000,1000,6000,11346.581,-100857.7842,-1704.722752,11.22954945,-0.000468522,1.05E-07,-1.19E-11,5.47E-16,-6891.71918,-38.497884,1
nitrate,NO3,g,N   1.00O   3.00    0.00    0.00    0.00,0,62.00494,71128,1000,6000,10958.914,-394387.271,-824.426353,10.61325843,-0.000244875,5.41E-08,-6.20E-12,2.87E-16,8982.01173,-34.446665,1
nitrate monofluoride,NO3F,g,N   1.00O   3.00F   1.00    0.00    0.00,0,81.0033432,15000,1000,6000,14444.156,-341211.507,-2353.82354,16.2810625,-0.001910372,4.69E-07,-5.69E-11,2.72E-15,9760.03099,-65.5809085,1
dinitrogen,N2,g,N   2.00    0.00    0.00    0.00    0.00,0,28.01348,0,1000,6000,8670.104,587712.406,-2239.249073,6.06694922,-0.000613969,1.49E-07,-1.92E-11,1.06E-15,12832.10415,-15.86639599,1
NCN,N2C,g,N   2.00C   1.00    0.00    0.00    0.00,0,40.02418,500795.485,1000,6000,10519.089,-148726.101,-774.549005,7.99515301,-0.000162733,2.89E-08,-3.02E-12,1.98E-16,61923.3854,-21.13086328,1
dinitrogen difluoride,N2F2,g,N   2.00F   2.00    0.00    0.00    0.00,0,66.0102864,62373.546,1000,6000,12868.756,-182488.386,-953.402996,10.6979548,-0.000275997,6.06E-08,-6.91E-12,3.19E-16,9283.46696,-32.4696859,1
dinitrogen tetrafluoride,N2F4,g,N   2.00F   4.00    0.00    0.00    0.00,0,104.0070928,-22000,1000,6000,17811.571,-518807.373,-670.397906,16.5013085,-0.00020077,4.44E-08,-5.10E-12,2.36E-16,-5280.40968,-60.406659,1
dinitrogen dihydride,N2H2,g,N   2.00H   2.00    0.00    0.00    0.00,0,30.02936,211858.756,1000,6000,9996.961,6217567.87,-17539.52096,20.22730509,-0.00097573,-4.21E-07,1.12E-10,-7.63E-15,137415.2574,-119.9559128,1
NH2NO2,N2H2O2,g,N   2.00H   2.00O   2.00    0.00    0.00,0,62.02816,-26000,1000,6000,12163.853,1654040.575,-8125.22088,20.21742772,-0.001244292,2.12E-07,-1.95E-11,7.44E-16,42308.2258,-101.619016,1
dinitrogen tetrahydride,N2H4,g,N   2.00H   4.00    0.00    0.00    0.00,0,32.04524,95180,1000,6000,11449.304,3293486.7,-11998.50628,21.04406814,-0.001399382,1.93E-07,-1.32E-11,3.17E-16,83484.337,-115.5750987,1
dinitrogen monoxide,N2O,g,N   2.00O   1.00    0.00    0.00    0.00,0,44.01288,81600,1000,6000,9580.935,343844.804,-2404.557558,9.12563622,-0.000540167,1.32E-07,-1.41E-11,6.38E-16,21986.32638,-31.47804743,1
dinitrogen trioxide,N2O3,g,N   2.00O   3.00    0.00    0.00    0.00,0,76.01168,86630.595,1000,6000,17120.855,778388.186,-4483.02466,16.66668024,-0.002062144,5.31E-07,-6.19E-11,2.69E-15,33609.1245,-67.3921223,1
dinitrogen tetroxide,N2O4,g,N   2.00O   4.00    0.00    0.00    0.00,0,92.01108,11110.919,1000,6000,16741.231,-458284.376,-1604.749805,16.74102133,-0.000509139,1.14E-07,-1.32E-11,5.98E-16,4306.90052,-65.6945025,1
dinitrogen pentoxide,N2O5,g,N   2.00O   5.00    0.00    0.00    0.00,0,108.01048,13300,1000,6000,20797.425,-53255.7896,-3109.277389,20.36088958,-0.00099599,2.40E-07,-3.06E-11,1.50E-15,13369.57281,-82.9862323,1
trinitrogen,N3,g,N   3.00    0.00    0.00    0.00    0.00,0,42.02022,436000,1000,6000,9570.906,252926.4658,-2362.876591,9.13526713,-0.000621287,1.32E-07,-1.48E-11,6.72E-16,64126.9539,-31.35825545,1
trinitrogen monohydride,N3H,g,N   3.00H   1.00    0.00    0.00    0.00,0,43.02816,294000,1000,6000,10947.183,1170469.241,-5102.45199,12.7828891,-0.000840949,1.59E-07,-1.51E-11,6.10E-16,64283.4447,-55.1311869,1
sodium,Na,g,NA  1.00    0.00    0.00    0.00    0.00,0,22.98977,107500,1000,6000,6197.428,952572.338,-2623.807254,5.16259662,-0.001210219,2.31E-07,-1.25E-11,7.23E-16,29129.63564,-15.19717061,1
sodium aluminum tetrafluoride,NaAlF4,g,NA  1.00AL  1.00F   4.00    0.00    0.00,0,125.9649208,-1840979.855,1000,5000,0,0,0,14.271553,0.001980019,-8.82E-07,1.73E-10,-1.25E-14,-226123.47,-41.27551799,1
sodium borate,NaBO2,g,NA  1.00B   1.00O   2.00    0.00    0.00,0,65.79957,-648530.975,1000,5000,0,0,0,7.496525,0.002630986,-1.10E-06,2.05E-10,-1.42E-14,-80578.591,-9.446301764,1
sodium bromide,NaBr,g,NA  1.00BR  1.00    0.00    0.00    0.00,0,102.89377,-143931.769,1000,5000,0,0,0,4.4433135,0.000157837,-2.80E-08,5.38E-12,-3.81E-16,-18659.489,3.608582159,1
sodium monocarbide mononitride,NaCN,g,NA  1.00C   1.00N   1.00    0.00    0.00,0,49.00721,94271.689,1000,5000,0,0,0,5.7989775,0.001682795,-6.74E-07,1.22E-10,-8.30E-15,9493.3444,-4.344278713,1
sodium chloride,NaCl,g,NA  1.00CL  1.00    0.00    0.00    0.00,0,58.44247,-181412.211,1000,5000,0,0,0,4.4282931,0.000156272,-2.81E-08,4.72E-12,-2.88E-16,-23170.9,2.300974641,1
sodium fluoride,NaF,g,NA  1.00F   1.00    0.00    0.00    0.00,0,41.9881732,-290453,1000,6000,0,0,0,4.33376796,0.000256808,-6.94E-08,1.20E-11,-7.49E-16,-36279.7872,1.300463611,1
sodium hydride,NaH,g,NA  1.00H   1.00    0.00    0.00    0.00,0,23.99771,124260.983,1000,5000,0,0,0,3.8130579,0.000856438,-3.12E-07,5.85E-11,-4.05E-15,13683.062,0.484168212,1
sodium iodide,NaI,g,NA  1.00I   1.00    0.00    0.00    0.00,0,149.89424,-89120.307,1000,5000,0,0,0,4.458457,0.000142413,-1.69E-08,3.90E-12,-2.80E-16,-12066.843,4.47595877,1
sodium oxide,NaO,g,NA  1.00O   1.00    0.00    0.00    0.00,0,38.98917,83684.358,1000,5000,0,0,0,4.3924158,0.000213206,-4.52E-08,7.98E-12,-5.17E-16,8711.8995,2.388089707,1
sodium hydroxide,NaOH,g,NA  1.00O   1.00H   1.00    0.00    0.00,0,39.99711,-191000,1000,6000,11396,875381.549,-2342.521554,7.97847644,0.000101642,-6.27E-08,1.02E-11,-5.71E-16,-9509.85648,-22.02315202,1
disodium,Na2,g,NA  2.00    0.00    0.00    0.00    0.00,0,45.97954,142043.125,1000,6000,0,0,0,5.962019,-0.001060495,-4.39E-07,3.05E-10,-3.39E-14,14999.0927,-6.69613634,1
sodium dicarbide dinitride,Na2C2N2,g,NA  2.00C   2.00N   2.00    0.00    0.00,0,98.01442,-8776.984,1000,5000,0,0,0,12.572786,0.003394732,-1.36E-06,2.47E-10,-1.68E-14,-5049.1021,-31.0742162,1
sodium chloride,Na2Cl2,g,NA  2.00CL  2.00    0.00    0.00    0.00,0,116.88494,-566077.384,1000,5000,0,0,0,9.8262001,0.000191848,-8.16E-08,1.53E-11,-1.06E-15,-71077.149,-17.03610085,1
sodium fluoride,Na2F2,g,NA  2.00F   2.00    0.00    0.00    0.00,0,83.9763464,-846432.824,1000,5000,0,0,0,9.433553,0.000636116,-2.76E-07,5.29E-11,-3.73E-15,-104801.14,-19.75299185,1
sodium oxide,Na2O,g,NA  2.00O   1.00    0.00    0.00    0.00,0,61.97894,-41417.546,1000,5000,0,0,0,7.1470582,0.000398331,-1.74E-07,3.36E-11,-2.38E-15,-7219.1261,-9.634810513,1
sodium dioxide dihydride,Na2O2H2,g,NA  2.00O   2.00H   2.00    0.00    0.00,0,79.99422,-624000,1000,6000,19346.141,1675692.516,-4704.86732,16.97338722,0.000196174,-1.24E-07,2.03E-11,-1.13E-15,-48562.8075,-68.13442902,1
sodium sulfate,Na2SO4,g,NA  2.00S   1.00O   4.00    0.00    0.00,0,142.04314,-1033641.566,1000,5000,0,0,0,15.206128,0.004298426,-1.90E-06,3.72E-10,-2.68E-14,-129673.57,-47.65692166,1
niobium,Nb,g,NB  1.00    0.00    0.00    0.00    0.00,0,92.90638,723113.099,1000,6000,8354.099,-1096553.196,2546.650713,2.236054882,-0.001280029,8.46E-07,-1.49E-10,8.71E-15,68791.2455,13.9816903,1
niobium chloride,NbCl5,g,NB  1.00CL  5.00    0.00    0.00    0.00,0,270.16988,-703330,1000,6000,26343.163,-156381.6638,-44.5052128,16.0354463,-1.49E-05,3.42E-09,-4.04E-13,1.92E-17,-89628.1512,-43.7458344,1
niobium oxide,NbO,g,NB  1.00O   1.00    0.00    0.00    0.00,0,108.90578,198744.989,1000,5000,0,0,0,3.8811729,0.000819781,-4.25E-07,1.03E-10,-8.04E-15,22637.132,6.22364151,1
niobium monoxide trichloride,NbOCl3,g,NB  1.00O   1.00CL  3.00    0.00    0.00,0,215.26388,-752300,1000,6000,20631,-151555.1427,53.0554523,12.28915282,-0.000152737,6.78E-08,-9.37E-12,4.67E-16,-94907.6812,-27.45264461,1
niobium oxide,NbO2,g,NB  1.00O   2.00    0.00    0.00    0.00,0,124.90518,-200000,1000,6000,0,0,0,6.05147948,0.000975154,-3.83E-07,6.54E-11,-4.07E-15,-26100.8645,-2.40015663,1
neon,Ne,g,NE  1.00    0.00    0.00    0.00    0.00,0,20.1797,0,1000,6000,6197.428,0,0,2.5,0,0,0,0,-745.375,3.35532272,1
nickel,Ni,g,NI  1.00    0.00    0.00    0.00    0.00,0,58.6934,430116.605,1000,6000,6825.013,-493826.221,1092.909991,2.410485014,-1.60E-05,-1.05E-08,4.62E-12,-4.45E-17,43360.7217,9.6771956,1
nickel chloride,NiCl,g,NI  1.00CL  1.00    0.00    0.00    0.00,0,94.1461,182008.903,1000,5000,0,0,0,5.5836514,-0.001432958,8.52E-07,-1.49E-10,8.16E-15,20056.505,-1.63732144,1
nickel chloride,NiCl2,g,NI  1.00CL  2.00    0.00    0.00    0.00,0,129.5988,-73932.233,1000,5000,0,0,0,7.387453,0.000846376,-4.31E-07,9.36E-11,-7.19E-15,-11235.857,-7.18895104,1
nickel oxide,NiO,g,NI  1.00O   1.00    0.00    0.00    0.00,0,74.6928,314003.739,1000,5000,0,0,0,4.1046114,0.000486592,-1.88E-07,3.55E-11,-2.47E-15,36445.645,4.07679656,1
nickel sulfide,NiS,g,NI  1.00S   1.00    0.00    0.00    0.00,0,90.7594,357427.4,1000,5000,0,0,0,4.9160472,0.000313775,-2.97E-07,8.02E-11,-6.73E-15,41321.032,1.81898797,1
oxygen,O,g,O   1.00    0.00    0.00    0.00    0.00,0,15.9994,249175.003,1000,6000,6725.403,261902.0262,-729.872203,3.31717727,-0.000428133,1.04E-07,-9.44E-12,2.73E-16,33924.2806,-0.667958535,1
oxygen d,OD,g,O   1.00D   1.00    0.00    0.00    0.00,0,18.013502,37221.508,1000,6000,8999.108,783247.316,-2532.992554,5.95212465,-0.00037436,4.96E-08,3.45E-12,-7.38E-16,19551.42652,-15.68898441,1
hydroxide,OH,g,O   1.00H   1.00    0.00    0.00    0.00,0,17.00734,39344.106,1000,6000,8813.106,1017393.379,-2509.957276,5.11654786,0.00013053,-8.28E-08,2.01E-11,-1.56E-15,20444.8713,-11.01282337,1
dioxygen,O2,g,O   2.00    0.00    0.00    0.00    0.00,0,31.9988,0,1000,6000,8680.104,-1037939.022,2344.830282,1.819732036,0.001267848,-2.19E-07,2.05E-11,-8.19E-16,-16890.10929,17.38716506,1
trioxygen,O3,g,O   3.00    0.00    0.00    0.00    0.00,0,47.9982,141800,1000,6000,10366.417,-27551262.24,71528.2068,-57.35735,0.020673104,2.07E-07,-8.53E-10,8.33E-14,-453216.204,469.249294,1